 Q-Chem 5.4, Q-Chem, Inc., Pleasanton, CA (2021)
 Q-Chem 5.4.1 for Intel X86 EM64T Linux

User input:
--------------------------------------------------------------
$molecule
-1 2
C         0.0335825890    0.2156391192    0.2364698461
O         1.2001413651    0.0826017418    0.8943481755
H        -1.1277621868    1.3766541534   -0.6298194523
C        -0.8393693190   -0.8929137460   -0.0274891381
O        -0.5062190370   -2.0526716429    0.3744233366
O        -1.9104150558   -0.6008046154   -0.6669935653
O        -0.2722929998    1.4647120681   -0.1745756269
H         1.6345905442    0.9437645218    0.9577898244
$end

$rem
BASIS = def2-TZVP
JOB_TYPE = SP
METHOD = wB97M-V
SCF_ALGORITHM = DIIS_GDM
MAX_SCF_CYCLES = 400
SCF_CONVERGENCE = 7
THRESH = 12
Solvent_method = SMD
$end
--------------------------------------------------------------

             Standard Nuclear Orientation (Angstroms)
    I     Atom           X                Y                Z
 ----------------------------------------------------------------
    1      C       0.0335825890     0.2156391192     0.2364698461
    2      O       1.2001413651     0.0826017418     0.8943481755
    3      H      -1.1277621868     1.3766541534    -0.6298194523
    4      C      -0.8393693190    -0.8929137460    -0.0274891381
    5      O      -0.5062190370    -2.0526716429     0.3744233366
    6      O      -1.9104150558    -0.6008046154    -0.6669935653
    7      O      -0.2722929998     1.4647120681    -0.1745756269
    8      H       1.6345905442     0.9437645218     0.9577898244
 ----------------------------------------------------------------

   16    -378.5050220567      9.10e-08  Convergence criterion met
 Total energy in the final basis set =     -378.4970706737

                    Orbital Energies (a.u.)
 --------------------------------------------------------------

 Alpha MOs
 -- Occupied --
-19.3692 -19.3657 -19.2705 -19.2687 -10.4404 -10.4288  -1.2351  -1.1666
 -1.1459  -1.0598  -0.8158  -0.7008  -0.6632  -0.5794  -0.5770  -0.5245
 -0.5146  -0.5056  -0.4947  -0.4617  -0.3714  -0.3711  -0.3499  -0.2378

 Beta MOs
 -- Occupied --
-19.3659 -19.3623 -19.2679 -19.2660 -10.4307 -10.4283  -1.2262  -1.1594
 -1.1411  -1.0544  -0.7965  -0.6943  -0.6562  -0.5746  -0.5473  -0.5202
 -0.5101  -0.5014  -0.4769  -0.4348  -0.3652  -0.3500  -0.3466

          Ground-State Mulliken Net Atomic Charges

     Atom                 Charge (a.u.)    Spin (a.u.)
  --------------------------------------------------------
      1 C                     0.216383       0.589165
      2 O                    -0.468127       0.085224
      3 H                     0.376718      -0.003048
      4 C                     0.324633       0.054673
      5 O                    -0.687702       0.096642
      6 O                    -0.701756       0.092435
      7 O                    -0.453026       0.087587
      8 H                     0.392876      -0.002678
  --------------------------------------------------------
  Sum of atomic charges =    -1.000000

                    Cartesian Multipole Moments
 -----------------------------------------------------------------
    Charge (ESU x 10^10)
                -4.8032
    Dipole Moment (Debye)
         X       6.2922      Y       9.5283      Z       0.3340
       Tot      11.4232
    Quadrupole Moments (Debye-Ang)
        XX     -44.9695     XY      -5.4565     YY     -51.7117
        XZ      -2.2691     YZ       2.4654     ZZ     -37.5386

 Total job time:  77.05s(wall), 303.55s(cpu)
        *  Thank you very much for using Q-Chem.  Have a nice day.  *
