 Q-Chem 5.4, Q-Chem, Inc., Pleasanton, CA (2021)
 Q-Chem 5.4.1 for Intel X86 EM64T Linux

User input:
--------------------------------------------------------------
$molecule
0 2
C         0.5259361465    0.2043921395    0.4740676009
O         1.2874533448   -0.5711169147    0.9869908096
H        -2.5875831013    0.7760436896   -0.2342908893
C        -0.9933530291   -0.0778802264    0.4538855820
O        -1.1924198531   -1.3245821325   -0.0584423260
O        -1.6382660789    0.9534424243   -0.1592693111
O         0.9252740252    1.3236119123   -0.1025326688
H         0.1686586019    1.8175050908   -0.4603742573
O        -1.4339563021   -0.1633635542    1.8680049276
O        -1.1076507085    0.9154251556    2.5200574009
H        -2.1404694451   -1.4927940843   -0.1674083686
$end

$rem
BASIS = 6-311++G(3df,2p)
JOB_TYPE = SP
METHOD = wB97M-V
SCF_ALGORITHM = DIIS_GDM
MAX_SCF_CYCLES = 400
SCF_CONVERGENCE = 7
THRESH = 12
Solvent_method = SMD
$end
--------------------------------------------------------------

             Standard Nuclear Orientation (Angstroms)
    I     Atom           X                Y                Z
 ----------------------------------------------------------------
    1      C       0.5259361465     0.2043921395     0.4740676009
    2      O       1.2874533448    -0.5711169147     0.9869908096
    3      H      -2.5875831013     0.7760436896    -0.2342908893
    4      C      -0.9933530291    -0.0778802264     0.4538855820
    5      O      -1.1924198531    -1.3245821325    -0.0584423260
    6      O      -1.6382660789     0.9534424243    -0.1592693111
    7      O       0.9252740252     1.3236119123    -0.1025326688
    8      H       0.1686586019     1.8175050908    -0.4603742573
    9      O      -1.4339563021    -0.1633635542     1.8680049276
   10      O      -1.1076507085     0.9154251556     2.5200574009
   11      H      -2.1404694451    -1.4927940843    -0.1674083686
 ----------------------------------------------------------------

   21    -529.3237213651      8.84e-08  Convergence criterion met
 Total energy in the final basis set =     -529.3170121584

                    Orbital Energies (a.u.)
 --------------------------------------------------------------

 Alpha MOs
 -- Occupied --
-19.4727 -19.4325 -19.4005 -19.3849 -19.3811 -19.3498 -10.5448 -10.5100
 -1.3645  -1.2731  -1.2442  -1.1924  -1.1737  -1.0116  -0.8606  -0.7552
 -0.7180  -0.7101  -0.6895  -0.6254  -0.6160  -0.5990  -0.5764  -0.5736
 -0.5325  -0.5077  -0.4958  -0.4543  -0.4502  -0.4282  -0.4136  -0.4049

 Beta MOs
 -- Occupied --
-19.4631 -19.4131 -19.4005 -19.3847 -19.3812 -19.3499 -10.5452 -10.5099
 -1.3414  -1.2706  -1.2420  -1.1922  -1.1736  -0.9770  -0.8555  -0.7547
 -0.7158  -0.6971  -0.6838  -0.6022  -0.5984  -0.5829  -0.5736  -0.5508
 -0.5300  -0.4974  -0.4886  -0.4523  -0.4491  -0.4215  -0.3923

          Ground-State Mulliken Net Atomic Charges

     Atom                 Charge (a.u.)    Spin (a.u.)
  --------------------------------------------------------
      1 C                     1.019928       0.011749
      2 O                    -0.753768      -0.001939
      3 H                     0.319841       0.000028
      4 C                     1.208698      -0.015859
      5 O                    -0.685917      -0.000115
      6 O                    -0.647815       0.005289
      7 O                    -0.578345       0.000298
      8 H                     0.367185      -0.000157
      9 O                    -0.334675       0.302518
     10 O                    -0.244146       0.698116
     11 H                     0.329014       0.000072
  --------------------------------------------------------
  Sum of atomic charges =     0.000000

                    Cartesian Multipole Moments
 -----------------------------------------------------------------
    Charge (ESU x 10^10)
                 0.0000
    Dipole Moment (Debye)
         X      -7.3847      Y       1.4148      Z      -4.5983
       Tot       8.8136
    Quadrupole Moments (Debye-Ang)
        XX     -34.5959     XY       3.2336     YY     -44.7816
        XZ       2.0029     YZ      -1.2404     ZZ     -53.9122

 Total job time:  297.75s(wall), 1180.74s(cpu)
        *  Thank you very much for using Q-Chem.  Have a nice day.  *
