 Q-Chem 5.4, Q-Chem, Inc., Pleasanton, CA (2021)
 Q-Chem 5.4.1 for Intel X86 EM64T Linux

User input:
--------------------------------------------------------------
$molecule
0 2
C         1.9143250109   -0.0455728881    0.1059143589
O         2.1999161556    1.1921835170   -0.2511782905
O         2.6989114745   -0.8987659151    0.4209795033
C         0.3990458602   -0.3105716894    0.0814455598
O        -0.3754775208    0.6131005689   -0.2289047623
O         0.0248927904   -1.4779704877    0.3854210048
H         3.1627816917    1.3211295086   -0.2234604547
H        -1.1648396957   -1.2929633555    0.2541182473
O        -2.1479405098   -0.6092700208    0.0637109205
H        -2.3063839569   -0.5941041378   -0.8958608871
$end

$rem
BASIS = 6-311++G(2df,2p)
GUI = 2
JOB_TYPE = Frequency
METHOD = wB97M-V
SOLVENT_METHOD = SMD
SCF_ALGORITHM = DIIS_GDM
MAX_SCF_CYCLES = 400
SCF_CONVERGENCE = 7
THRESH = 12
SYMMETRY_IGNORE = 1
$end

--------------------------------------------------------------

   24    -454.1294712992      4.16e-08  Convergence criterion met
 Total energy in the final basis set =     -454.1200603801
   20    -454.1294747920      8.14e-08  Convergence criterion met
 Total energy in the final basis set =     -454.1200590063
   20    -454.1294651569      8.28e-08  Convergence criterion met
 Total energy in the final basis set =     -454.1200591201
   20    -454.1294736077      8.11e-08  Convergence criterion met
 Total energy in the final basis set =     -454.1200590652
   20    -454.1294662602      8.40e-08  Convergence criterion met
 Total energy in the final basis set =     -454.1200590322
   20    -454.1294701110      8.16e-08  Convergence criterion met
 Total energy in the final basis set =     -454.1200599707
   20    -454.1294715838      8.09e-08  Convergence criterion met
 Total energy in the final basis set =     -454.1200598957
   20    -454.1294687860      8.30e-08  Convergence criterion met
 Frequency:     -1530.90                  42.87                 107.23
 Force Cnst:      1.5513                 0.0124                 0.0532
 Red. Mass:       1.1235                11.4105                 7.8497
 IR Intens:      844.765                  5.244                  9.276
 Frequency:       204.67                 329.35                 426.77
 Force Cnst:      0.2128                 0.5720                 1.0337
 Red. Mass:       8.6209                 8.9507                 9.6329
 IR Intens:        3.015                 46.299                  9.324
 Frequency:       474.78                 536.82                 546.49
 Force Cnst:      0.3783                 1.5571                 0.2031
 Red. Mass:       2.8485                 9.1710                 1.1543
 IR Intens:        8.149                  7.297                144.680
 Frequency:       608.02                 630.90                 680.40
 Force Cnst:      1.2541                 0.3220                 0.3340
 Red. Mass:       5.7575                 1.3730                 1.2244
 IR Intens:       89.458                233.070                177.241
 Frequency:       734.27                 856.40                 904.72
 Force Cnst:      1.8381                 4.9986                 4.3689
 Red. Mass:       5.7864                11.5675                 9.0594
 IR Intens:      155.889                  1.422                 44.732
 Frequency:      1164.11                1334.55                1434.41
 Force Cnst:      2.1521                 2.6019                 1.2925
 Red. Mass:       2.6954                 2.4795                 1.0662
 IR Intens:      630.795                292.003                155.565
 Frequency:      1468.50                1631.47                1664.94
 Force Cnst:      6.6595                 9.5109                 1.8970
 Red. Mass:       5.2413                 6.0647                 1.1615
 IR Intens:       36.325               1581.351                257.925
 Frequency:      1790.83                3725.28                3734.76
 Force Cnst:     21.0443                 8.7074                 8.7665
 Red. Mass:      11.1372                 1.0649                 1.0667
 IR Intens:      653.791                406.141                431.671

 STANDARD THERMODYNAMIC QUANTITIES AT   298.15 K  AND     1.00 ATM

   This Molecule has  1 Imaginary Frequencies
   Zero point vibrational energy:       35.786 kcal/mol

   Atom    1 Element C  Has Mass   12.00000
   Atom    2 Element O  Has Mass   15.99491
   Atom    3 Element O  Has Mass   15.99491
   Atom    4 Element C  Has Mass   12.00000
   Atom    5 Element O  Has Mass   15.99491
   Atom    6 Element O  Has Mass   15.99491
   Atom    7 Element H  Has Mass    1.00783
   Atom    8 Element H  Has Mass    1.00783
   Atom    9 Element O  Has Mass   15.99491
   Atom   10 Element H  Has Mass    1.00783
   Molecular Mass:   106.998040 amu
   Principal axes and moments of inertia in amu*Bohr^2:
                             1           2           3
    Eigenvalues --      296.10918  1071.34273  1361.84077
          X               0.98438    -0.16408    -0.06389
          Y               0.17555     0.94261     0.28401
          Z               0.01362    -0.29078     0.95669
   Rotational Symmetry Number is   1
   The Molecule is an Asymmetric Top
   Translational Enthalpy:        0.889 kcal/mol
   Rotational Enthalpy:           0.889 kcal/mol
   Vibrational Enthalpy:         38.365 kcal/mol
   gas constant (RT):             0.592 kcal/mol
   Translational Entropy:        39.920  cal/mol.K
   Rotational Entropy:           27.559  cal/mol.K
   Vibrational Entropy:          16.365  cal/mol.K

   Total Enthalpy:               40.735 kcal/mol
   Total Entropy:                83.844  cal/mol.K
 Total job time:  5199.04s(wall), 40250.64s(cpu)
        *  Thank you very much for using Q-Chem.  Have a nice day.  *
 Q-Chem 5.4, Q-Chem, Inc., Pleasanton, CA (2021)
 Q-Chem 5.4.1 for Intel X86 EM64T Linux

User input:
--------------------------------------------------------------

$molecule
read
$end

$rem
JOBTYPE            rpath
SCF_GUESS          read
RPATH_MAX_CYCLES   30
BASIS = 6-311++G(2df,2p)
METHOD = wB97M-V
SOLVENT_METHOD = SMD
SCF_ALGORITHM = DIIS_GDM
SCF_CONVERGENCE = 7
THRESH = 12
$end
--------------------------------------------------------------

 Total energy in the final basis set =     -454.1327806988
   20    -454.1433613595      4.81e-08  Convergence criterion met
 Total energy in the final basis set =     -454.1336821545
   20    -454.1433505691      6.22e-08  Convergence criterion met
 Total energy in the final basis set =     -454.1336307206
   22    -454.1434248174      2.83e-08  Convergence criterion met
 Total energy in the final basis set =     -454.1337282508
   22    -454.1420057608      2.81e-08  Convergence criterion met
 Total energy in the final basis set =     -454.1321155709
   21    -454.1435288075      6.41e-08  Convergence criterion met
 Total energy in the final basis set =     -454.1337961529
   22    -454.1434560581      1.96e-08  Convergence criterion met
 Total energy in the final basis set =     -454.1337617568
   21    -454.1435389177      8.00e-08  Convergence criterion met
 Total energy in the final basis set =     -454.1338208567

                    Orbital Energies (a.u.)
 --------------------------------------------------------------

 Alpha MOs
 -- Occupied --
-19.4325 -19.4067 -19.3759 -19.3613 -19.3554 -10.5194 -10.5112  -1.2864
 -1.2581  -1.1961  -1.1732  -1.1703  -0.8400  -0.7145  -0.6785  -0.6532
 -0.6440  -0.6233  -0.6135  -0.5682  -0.5588  -0.5346  -0.5281  -0.4664
 -0.4530  -0.4512  -0.4350  -0.4061

 Beta MOs
 -- Occupied --
-19.4125 -19.4066 -19.3675 -19.3603 -19.3553 -10.5182 -10.5121  -1.2803
 -1.2436  -1.1907  -1.1592  -1.1482  -0.8308  -0.7094  -0.6657  -0.6428
 -0.6374  -0.6192  -0.5943  -0.5617  -0.5492  -0.5242  -0.4648  -0.4621
 -0.4409  -0.4203  -0.4122

          Ground-State Mulliken Net Atomic Charges

     Atom                 Charge (a.u.)    Spin (a.u.)
  --------------------------------------------------------
      1 C                     0.331514       0.041025
      2 O                    -0.273104       0.010389
      3 O                    -0.421926       0.029425
      4 C                     0.340100      -0.030976
      5 O                    -0.172140       0.695336
      6 O                    -0.424977       0.009295
      7 H                     0.369037      -0.002320
      8 H                     0.333066      -0.007270
      9 O                    -0.426034       0.262435
     10 H                     0.344464      -0.007339
  --------------------------------------------------------
  Sum of atomic charges =     0.000000

                    Cartesian Multipole Moments
 -----------------------------------------------------------------
    Charge (ESU x 10^10)
                 0.0000
    Dipole Moment (Debye)
         X       0.4398      Y       2.3640      Z      -2.8184
       Tot       3.7047
    Quadrupole Moments (Debye-Ang)
        XX     -34.5511     XY      13.4652     YY     -43.8352
        XZ       1.4460     YZ       3.4038     ZZ     -37.3833

             Standard Nuclear Orientation (Angstroms)
    I     Atom           X                Y                Z
 ----------------------------------------------------------------
    1      C       1.9143250109    -0.0455728881     0.1059143589
    2      O       2.1999161556     1.1921835170    -0.2511782905
    3      O       2.6989114745    -0.8987659151     0.4209795033
    4      C       0.3990458602    -0.3105716894     0.0814455598
    5      O      -0.3754775208     0.6131005689    -0.2289047623
    6      O       0.0248927904    -1.4779704877     0.3854210048
    7      H       3.1627816917     1.3211295086    -0.2234604547
    8      H      -1.1648396957    -1.2929633555     0.2541182473
    9      O      -2.1479405098    -0.6092700208     0.0637109205
   10      H      -2.3063839569    -0.5941041378    -0.8958608871
 ----------------------------------------------------------------

 Total job time:  7766.48s(wall), 60131.47s(cpu)
        *  Thank you very much for using Q-Chem.  Have a nice day.  *
