 Q-Chem 5.4, Q-Chem, Inc., Pleasanton, CA (2021)
 Q-Chem 5.4.1 for Intel X86 EM64T Linux

User input:
--------------------------------------------------------------
$molecule
0 2
C    1.8427675   -0.0533112    0.0805020
O    2.1165617    1.2035567   -0.2420372
O    2.6344872   -0.9137621    0.3740102
C    0.3211786   -0.3613793    0.0526874
O   -0.3897076    0.6651346   -0.2916236
O   -0.0605217   -1.4844530    0.3414988
H    3.0873509    1.3289538   -0.2051295
H   -1.1808589   -1.4784910    0.4467307
O   -1.9546936   -0.4811476    0.0639681
H   -2.0113328   -0.5279058   -0.9084217
$end

$rem
BASIS = 6-311++G(2df,2p)
GUI = 2
JOB_TYPE = Frequency
METHOD = wB97M-V
SCF_ALGORITHM = DIIS_GDM
MAX_SCF_CYCLES = 400
SCF_CONVERGENCE = 6
THRESH = 11
SYMMETRY_IGNORE = 1
solvent_method = SMD
$end

--------------------------------------------------------------

   19    -454.0979657223      9.22e-07  Convergence criterion met
 Total energy in the final basis set =     -454.0887328826
   15    -454.0979655798      7.16e-07  Convergence criterion met
 Total energy in the final basis set =     -454.0887277675
   16    -454.0979632646      8.23e-07  Convergence criterion met
 Total energy in the final basis set =     -454.0887354138
   15    -454.0979445679      6.77e-07  Convergence criterion met
 Total energy in the final basis set =     -454.0887077843
   15    -454.0979842054      9.44e-07  Convergence criterion met
 Total energy in the final basis set =     -454.0887553827
   15    -454.0979666674      8.52e-07  Convergence criterion met
 Total energy in the final basis set =     -454.0887345498
   15    -454.0979639007      7.81e-07  Convergence criterion met
 Total energy in the final basis set =     -454.0887303482
   15    -454.0979736845      9.53e-07  Convergence criterion met
 Frequency:     -1227.31                -123.45                  69.21
 Force Cnst:      0.9889                 0.0880                 0.0290
 Red. Mass:       1.1143                 9.8001                10.2634
 IR Intens:      671.713                  3.306                  6.777
 Frequency:       203.55                 383.00                 480.48
 Force Cnst:      0.2281                 0.9492                 1.2733
 Red. Mass:       9.3420                10.9824                 9.3614
 IR Intens:        0.920                 10.932                  2.850
 Frequency:       500.57                 598.64                 614.48
 Force Cnst:      0.6729                 2.1864                 0.2596
 Red. Mass:       4.5577                10.3553                 1.1670
 IR Intens:        8.983                  6.666                161.526
 Frequency:       648.35                 678.08                 785.13
 Force Cnst:      1.2382                 0.3446                 2.1413
 Red. Mass:       4.9993                 1.2719                 5.8957
 IR Intens:      168.761                255.524                 27.991
 Frequency:       822.56                 856.67                 916.87
 Force Cnst:      0.4319                 5.2241                 5.6174
 Red. Mass:       1.0835                12.0820                11.3414
 IR Intens:      123.191                  1.170                  6.828
 Frequency:      1161.54                1284.71                1315.27
 Force Cnst:      2.8134                 2.6573                 1.1230
 Red. Mass:       3.5393                 2.7327                 1.1018
 IR Intens:      585.378                536.486                269.645
 Frequency:      1401.52                1699.46                1765.85
 Force Cnst:      3.5053                 7.3893                20.9574
 Red. Mass:       3.0289                 4.3424                11.4072
 IR Intens:      327.948                578.106                746.490
 Frequency:      1911.55                3627.02                3694.56
 Force Cnst:      2.5720                 8.2535                 8.5764
 Red. Mass:       1.1947                 1.0648                 1.0664
 IR Intens:      460.603                293.430                189.275

 STANDARD THERMODYNAMIC QUANTITIES AT   298.15 K  AND     1.00 ATM

   This Molecule has  2 Imaginary Frequencies
   Zero point vibrational energy:       36.338 kcal/mol

   Atom    1 Element C  Has Mass   12.00000
   Atom    2 Element O  Has Mass   15.99491
   Atom    3 Element O  Has Mass   15.99491
   Atom    4 Element C  Has Mass   12.00000
   Atom    5 Element O  Has Mass   15.99491
   Atom    6 Element O  Has Mass   15.99491
   Atom    7 Element H  Has Mass    1.00783
   Atom    8 Element H  Has Mass    1.00783
   Atom    9 Element O  Has Mass   15.99491
   Atom   10 Element H  Has Mass    1.00783
   Molecular Mass:   106.998040 amu
   Principal axes and moments of inertia in amu*Bohr^2:
                             1           2           3
    Eigenvalues --      306.84172   971.98902  1272.25177
          X               0.98596    -0.15676    -0.05749
          Y               0.16654     0.94787     0.27167
          Z               0.01191    -0.27743     0.96067
   Rotational Symmetry Number is   1
   The Molecule is an Asymmetric Top
   Translational Enthalpy:        0.889 kcal/mol
   Rotational Enthalpy:           0.889 kcal/mol
   Vibrational Enthalpy:         38.241 kcal/mol
   gas constant (RT):             0.592 kcal/mol
   Translational Entropy:        39.920  cal/mol.K
   Rotational Entropy:           27.431  cal/mol.K
   Vibrational Entropy:          11.091  cal/mol.K

   Total Enthalpy:               40.611 kcal/mol
   Total Entropy:                78.441  cal/mol.K
 Total job time:  2877.36s(wall), 42050.42s(cpu)
        *  Thank you very much for using Q-Chem.  Have a nice day.  *
 Q-Chem 5.4, Q-Chem, Inc., Pleasanton, CA (2021)
 Q-Chem 5.4.1 for Intel X86 EM64T Linux

User input:
--------------------------------------------------------------

$rem
JOBTYPE = ts
SCF_GUESS = read
GEOM_OPT_HESSIAN = read
MAX_SCF_CYCLES = 350
GEOM_OPT_DMAX = 60
GEOM_OPT_MAX_CYCLES = 250
METHOD = wB97M-v
BASIS = 6-311++G(2df,2p)
SCF_CONVERGENCE = 7
THRESH = 12
SCF_ALGORITHM = DIIS_GDM
solvent_method = SMD
$end

$molecule
read
$end
--------------------------------------------------------------

   20    -454.1292106135      4.48e-08  Convergence criterion met
 Total energy in the final basis set =     -454.1198089361
   20    -454.1294283283      4.92e-08  Convergence criterion met
 Total energy in the final basis set =     -454.1200221444
   20    -454.1294604921      4.22e-08  Convergence criterion met
 Total energy in the final basis set =     -454.1200514360
   20    -454.1294629376      7.37e-08  Convergence criterion met
 Total energy in the final basis set =     -454.1200529868
   20    -454.1294704733      9.08e-08  Convergence criterion met
 Total energy in the final basis set =     -454.1200587378
   20    -454.1294704498      8.89e-08  Convergence criterion met
 Total energy in the final basis set =     -454.1200602980

             Standard Nuclear Orientation (Angstroms)
    I     Atom           X                Y                Z
 ----------------------------------------------------------------
    1      C       1.9143250109    -0.0455728881     0.1059143589
    2      O       2.1999161556     1.1921835170    -0.2511782905
    3      O       2.6989114745    -0.8987659151     0.4209795033
    4      C       0.3990458602    -0.3105716894     0.0814455598
    5      O      -0.3754775208     0.6131005689    -0.2289047623
    6      O       0.0248927904    -1.4779704877     0.3854210048
    7      H       3.1627816917     1.3211295086    -0.2234604547
    8      H      -1.1648396957    -1.2929633555     0.2541182473
    9      O      -2.1479405098    -0.6092700208     0.0637109205
   10      H      -2.3063839569    -0.5941041378    -0.8958608871
 ----------------------------------------------------------------

   20    -454.1294712993      9.03e-08  Convergence criterion met
 Total energy in the final basis set =     -454.1200603802
 Final energy is   -454.120060380182
 **  OPTIMIZATION CONVERGED  **

                    Orbital Energies (a.u.)
 --------------------------------------------------------------

 Alpha MOs
 -- Occupied --
-19.4079 -19.4030 -19.3849 -19.3700 -19.3573 -10.5158 -10.5106  -1.2837
 -1.2585  -1.1892  -1.1675  -1.1622  -0.8450  -0.7286  -0.6668  -0.6505
 -0.6367  -0.6216  -0.6106  -0.5747  -0.5563  -0.5338  -0.5200  -0.4597
 -0.4578  -0.4454  -0.4438  -0.4008

 Beta MOs
 -- Occupied --
-19.4029 -19.3887 -19.3746 -19.3701 -19.3571 -10.5152 -10.5112  -1.2801
 -1.2535  -1.1870  -1.1560  -1.1194  -0.8408  -0.7262  -0.6556  -0.6440
 -0.6330  -0.6187  -0.5932  -0.5625  -0.5492  -0.5207  -0.4591  -0.4584
 -0.4393  -0.4313  -0.3996

          Ground-State Mulliken Net Atomic Charges

     Atom                 Charge (a.u.)    Spin (a.u.)
  --------------------------------------------------------
      1 C                     0.323442       0.017304
      2 O                    -0.271934       0.004539
      3 O                    -0.438553       0.006862
      4 C                     0.354648      -0.024630
      5 O                    -0.368035       0.313518
      6 O                    -0.407292       0.010814
      7 H                     0.367567      -0.001043
      8 H                     0.416329      -0.009016
      9 O                    -0.335555       0.695789
     10 H                     0.359382      -0.014137
  --------------------------------------------------------
  Sum of atomic charges =     0.000000

                    Cartesian Multipole Moments
 -----------------------------------------------------------------
    Charge (ESU x 10^10)
                 0.0000
    Dipole Moment (Debye)
         X      -0.2190      Y       1.2992      Z      -2.5338
       Tot       2.8559
    Quadrupole Moments (Debye-Ang)
        XX     -32.5426     XY      13.1728     YY     -44.2094
        XZ       1.5516     YZ       3.5791     ZZ     -37.5553

 Total job time:  1159.07s(wall), 16962.96s(cpu)
        *  Thank you very much for using Q-Chem.  Have a nice day.  *
