 Q-Chem 5.4, Q-Chem, Inc., Pleasanton, CA (2021)
 Q-Chem 5.4.1 for Intel X86 EM64T Linux

User input:
--------------------------------------------------------------
$molecule
-1 2
C         1.4980164545    0.7660547243   -0.1383624944
O         1.8026323618    1.4121745551    0.8766832452
O         1.9798924524    0.8168866210   -1.2928620119
C         0.3676719600   -0.2762671958    0.0083766160
O        -0.0592124773   -0.7989272362   -1.1237456197
O        -0.4187979559   -0.3089060280    1.0215964248
H         0.0738809553   -1.0384616266    1.7114023966
O         1.5892850633   -1.6572546214    0.7212176276
O         1.0518619496   -1.9085083887    1.8610669549
H         0.5714289363   -0.4987389036   -1.8095437390
$end

$rem
BASIS = def2-TZVP
JOB_TYPE = SP
METHOD = wB97M-V
SCF_ALGORITHM = DIIS_GDM
MAX_SCF_CYCLES = 400
SCF_CONVERGENCE = 7
THRESH = 12
Solvent_method = SMD
$end
--------------------------------------------------------------

             Standard Nuclear Orientation (Angstroms)
    I     Atom           X                Y                Z
 ----------------------------------------------------------------
    1      C       1.4980164545     0.7660547243    -0.1383624944
    2      O       1.8026323618     1.4121745551     0.8766832452
    3      O       1.9798924524     0.8168866210    -1.2928620119
    4      C       0.3676719600    -0.2762671958     0.0083766160
    5      O      -0.0592124773    -0.7989272362    -1.1237456197
    6      O      -0.4187979559    -0.3089060280     1.0215964248
    7      H       0.0738809553    -1.0384616266     1.7114023966
    8      O       1.5892850633    -1.6572546214     0.7212176276
    9      O       1.0518619496    -1.9085083887     1.8610669549
   10      H       0.5714289363    -0.4987389036    -1.8095437390
 ----------------------------------------------------------------

   22    -528.8959939391      3.60e-08  Convergence criterion met
 Total energy in the final basis set =     -528.8888307442

                    Orbital Energies (a.u.)
 --------------------------------------------------------------

 Alpha MOs
 -- Occupied --
-19.4233 -19.4199 -19.3817 -19.3498 -19.2969 -19.2935 -10.5065 -10.4546
 -1.3337  -1.2523  -1.1788  -1.1743  -1.0947  -0.9461  -0.7868  -0.7295
 -0.6946  -0.6185  -0.6066  -0.6010  -0.5969  -0.5454  -0.5400  -0.5234
 -0.5067  -0.4776  -0.4560  -0.3921  -0.3817  -0.3804  -0.3708  -0.3576

 Beta MOs
 -- Occupied --
-19.4076 -19.4052 -19.3818 -19.3499 -19.2969 -19.2934 -10.5068 -10.4546
 -1.3069  -1.2504  -1.1788  -1.1740  -1.0947  -0.9060  -0.7847  -0.7282
 -0.6892  -0.6168  -0.6002  -0.5776  -0.5456  -0.5375  -0.5309  -0.5155
 -0.4974  -0.4718  -0.4544  -0.3830  -0.3793  -0.3710  -0.3476

          Ground-State Mulliken Net Atomic Charges

     Atom                 Charge (a.u.)    Spin (a.u.)
  --------------------------------------------------------
      1 C                     0.322528       0.000656
      2 O                    -0.581719       0.001281
      3 O                    -0.594058       0.000148
      4 C                     0.311022      -0.021223
      5 O                    -0.365853      -0.005010
      6 O                    -0.453755      -0.000935
      7 H                     0.380053      -0.009362
      8 O                    -0.176025       0.531455
      9 O                    -0.230851       0.502829
     10 H                     0.388658       0.000161
  --------------------------------------------------------
  Sum of atomic charges =    -1.000000

                    Cartesian Multipole Moments
 -----------------------------------------------------------------
    Charge (ESU x 10^10)
                -4.8032
    Dipole Moment (Debye)
         X      -8.2817      Y      -2.8967      Z      -2.2963
       Tot       9.0692
    Quadrupole Moments (Debye-Ang)
        XX     -67.8917     XY      -7.9457     YY     -59.1680
        XZ      -1.3753     YZ       1.3534     ZZ     -52.1017

 Total job time:  170.61s(wall), 676.37s(cpu)
        *  Thank you very much for using Q-Chem.  Have a nice day.  *
