 Q-Chem 5.4, Q-Chem, Inc., Pleasanton, CA (2021)
 Q-Chem 5.4.1 for Intel X86 EM64T Linux

User input:
--------------------------------------------------------------
$molecule
-1 2
C         0.2893629763    0.0315406487    0.5566337965
O         0.6541680611   -1.1565349345    0.4174602413
C        -1.2484564108    0.2451230646    0.4406601187
O        -1.9097781564   -0.9131982675    0.1604466214
O        -1.5417753257    1.2702625386   -0.4185445904
O         0.9759381516    1.0444137214    0.7745928551
O        -1.7384232270    0.7473130169    1.7662032033
O        -1.5108119417   -0.1144755690    2.7119986494
H        -1.2217318192   -1.6053856353    0.1817768981
H        -2.4856635083    1.2394733162   -0.6302879932
$end

$rem
BASIS = 6-311++G(3df,2p)
JOB_TYPE = SP
METHOD = wB97M-V
SCF_ALGORITHM = DIIS_GDM
MAX_SCF_CYCLES = 400
SCF_CONVERGENCE = 7
THRESH = 12
Solvent_method = SMD
$end
--------------------------------------------------------------

             Standard Nuclear Orientation (Angstroms)
    I     Atom           X                Y                Z
 ----------------------------------------------------------------
    1      C       0.2893629763     0.0315406487     0.5566337965
    2      O       0.6541680611    -1.1565349345     0.4174602413
    3      C      -1.2484564108     0.2451230646     0.4406601187
    4      O      -1.9097781564    -0.9131982675     0.1604466214
    5      O      -1.5417753257     1.2702625386    -0.4185445904
    6      O       0.9759381516     1.0444137214     0.7745928551
    7      O      -1.7384232270     0.7473130169     1.7662032033
    8      O      -1.5108119417    -0.1144755690     2.7119986494
    9      H      -1.2217318192    -1.6053856353     0.1817768981
   10      H      -2.4856635083     1.2394733162    -0.6302879932
 ----------------------------------------------------------------

   21    -528.8865299019      6.49e-08  Convergence criterion met
 Total energy in the final basis set =     -528.8802120163

                    Orbital Energies (a.u.)
 --------------------------------------------------------------

 Alpha MOs
 -- Occupied --
-19.4582 -19.4182 -19.3661 -19.3599 -19.3038 -19.2989 -10.5117 -10.4566
 -1.3484  -1.2370  -1.1828  -1.1650  -1.0986  -0.9939  -0.8102  -0.7179
 -0.6760  -0.6666  -0.6128  -0.6082  -0.5889  -0.5472  -0.5286  -0.5263
 -0.5104  -0.4770  -0.4358  -0.4154  -0.4006  -0.3850  -0.3754  -0.3671

 Beta MOs
 -- Occupied --
-19.4479 -19.3994 -19.3662 -19.3598 -19.3037 -19.2990 -10.5121 -10.4564
 -1.3241  -1.2335  -1.1826  -1.1648  -1.0984  -0.9589  -0.8039  -0.7119
 -0.6725  -0.6563  -0.6039  -0.5793  -0.5522  -0.5427  -0.5264  -0.5193
 -0.5050  -0.4710  -0.4329  -0.3955  -0.3849  -0.3754  -0.3655

          Ground-State Mulliken Net Atomic Charges

     Atom                 Charge (a.u.)    Spin (a.u.)
  --------------------------------------------------------
      1 C                     0.927600       0.013641
      2 O                    -0.819845       0.002408
      3 C                     1.134807      -0.018132
      4 O                    -0.740781       0.003621
      5 O                    -0.708900       0.000019
      6 O                    -0.854893      -0.001221
      7 O                    -0.339908       0.324986
      8 O                    -0.276489       0.674859
      9 H                     0.358305      -0.000044
     10 H                     0.320104      -0.000138
  --------------------------------------------------------
  Sum of atomic charges =    -1.000000

                    Cartesian Multipole Moments
 -----------------------------------------------------------------
    Charge (ESU x 10^10)
                -4.8032
    Dipole Moment (Debye)
         X      -3.5895      Y      -0.9755      Z      -5.7837
       Tot       6.8766
    Quadrupole Moments (Debye-Ang)
        XX     -51.5354     XY      -3.0645     YY     -54.4997
        XZ       3.9233     YZ      -1.9084     ZZ     -57.7069

 Total job time:  319.72s(wall), 1172.39s(cpu)
        *  Thank you very much for using Q-Chem.  Have a nice day.  *
