 Q-Chem 5.4, Q-Chem, Inc., Pleasanton, CA (2021)
 Q-Chem 5.4.1 for Intel X86 EM64T Linux

User input:
--------------------------------------------------------------
$molecule
-1 2
C         1.4980164545    0.7660547243   -0.1383624944
O         1.8026323618    1.4121745551    0.8766832452
O         1.9798924524    0.8168866210   -1.2928620119
C         0.3676719600   -0.2762671958    0.0083766160
O        -0.0592124773   -0.7989272362   -1.1237456197
O        -0.4187979559   -0.3089060280    1.0215964248
H         0.0738809553   -1.0384616266    1.7114023966
O         1.5892850633   -1.6572546214    0.7212176276
O         1.0518619496   -1.9085083887    1.8610669549
H         0.5714289363   -0.4987389036   -1.8095437390
$end

$rem
BASIS = 6-311++G(2df,2p)
GUI = 2
JOB_TYPE = Frequency
METHOD = wB97M-V
SCF_ALGORITHM = DIIS_GDM
MAX_SCF_CYCLES = 400
SCF_CONVERGENCE = 6
THRESH = 11
SYMMETRY_IGNORE = 1
solvent_method = SMD
$end

--------------------------------------------------------------

   19    -528.8667587569      4.73e-07  Convergence criterion met
 Total energy in the final basis set =     -528.8595955621
   17    -528.8667616089      4.63e-07  Convergence criterion met
 Total energy in the final basis set =     -528.8595946461
   17    -528.8667544339      4.83e-07  Convergence criterion met
 Total energy in the final basis set =     -528.8595950183
   17    -528.8667616686      4.64e-07  Convergence criterion met
 Total energy in the final basis set =     -528.8595948160
   17    -528.8667543291      4.64e-07  Convergence criterion met
 Total energy in the final basis set =     -528.8595948054
   17    -528.8667568322      4.67e-07  Convergence criterion met
 Total energy in the final basis set =     -528.8595943143
   17    -528.8667576529      4.74e-07  Convergence criterion met
 Total energy in the final basis set =     -528.8595938382
   17    -528.8667577326      4.69e-07  Convergence criterion met
   17    -528.8667585426      4.67e-07  Convergence criterion met
 Total energy in the final basis set =     -528.8595953089
   17    -528.8667584426      4.72e-07  Convergence criterion met
 Total energy in the final basis set =     -528.8595954232
   17    -528.8667588653      4.67e-07  Convergence criterion met
 Total energy in the final basis set =     -528.8595954946
   17    -528.8667580159      4.69e-07  Convergence criterion met
 Total energy in the final basis set =     -528.8595953959
   17    -528.8667584815      4.72e-07  Convergence criterion met
 Total energy in the final basis set =     -528.8595947115
 Frequency:      -727.91                  77.13                  87.48
 Force Cnst:      0.5796                 0.0492                 0.0578
 Red. Mass:       1.8567                14.0247                12.8128
 IR Intens:      307.899                  6.578                 14.366
 Frequency:       194.36                 237.15                 287.20
 Force Cnst:      0.2815                 0.2793                 0.3927
 Red. Mass:      12.6470                 8.4301                 8.0800
 IR Intens:        5.528                 66.855                112.799
 Frequency:       413.02                 452.73                 535.16
 Force Cnst:      0.8743                 0.7827                 1.7556
 Red. Mass:       8.6990                 6.4815                10.4039
 IR Intens:       19.979                387.514                 45.144
 Frequency:       616.03                 692.98                 699.46
 Force Cnst:      2.3188                 0.3629                 1.5524
 Red. Mass:      10.3706                 1.2828                 5.3857
 IR Intens:       27.860                335.682                 58.828
 Frequency:       796.17                 862.08                 915.67
 Force Cnst:      3.1549                 4.9529                 0.6560
 Red. Mass:       8.4474                11.3115                 1.3280
 IR Intens:       21.235                 63.523                249.365
 Frequency:      1041.41                1190.03                1294.56
 Force Cnst:      1.3735                 1.6403                 3.3447
 Red. Mass:       2.1494                 1.9659                 3.3874
 IR Intens:      717.565                150.483                869.496
 Frequency:      1333.16                1413.25                1564.64
 Force Cnst:     12.2198                12.2807                 5.1394
 Red. Mass:      11.6695                10.4361                 3.5631
 IR Intens:      212.863                537.036                320.675
 Frequency:      1642.61                1911.94                3582.77
 Force Cnst:     16.5367                 2.3457                 8.0454
 Red. Mass:      10.4023                 1.0891                 1.0638
 IR Intens:     1254.399                233.692                397.251

 STANDARD THERMODYNAMIC QUANTITIES AT   298.15 K  AND     1.00 ATM

   This Molecule has  1 Imaginary Frequencies
   Zero point vibrational energy:       31.223 kcal/mol

   Atom    1 Element C  Has Mass   12.00000
   Atom    2 Element O  Has Mass   15.99491
   Atom    3 Element O  Has Mass   15.99491
   Atom    4 Element C  Has Mass   12.00000
   Atom    5 Element O  Has Mass   15.99491
   Atom    6 Element O  Has Mass   15.99491
   Atom    7 Element H  Has Mass    1.00783
   Atom    8 Element O  Has Mass   15.99491
   Atom    9 Element O  Has Mass   15.99491
   Atom   10 Element H  Has Mass    1.00783
   Molecular Mass:   121.985120 amu
   Principal axes and moments of inertia in amu*Bohr^2:
                             1           2           3
    Eigenvalues --      604.93272   990.24392  1147.74710
          X               0.27690     0.59859     0.75167
          Y               0.76139     0.34052    -0.55166
          Z              -0.58618     0.72507    -0.36147
   Rotational Symmetry Number is   1
   The Molecule is an Asymmetric Top
   Translational Enthalpy:        0.889 kcal/mol
   Rotational Enthalpy:           0.889 kcal/mol
   Vibrational Enthalpy:         34.024 kcal/mol
   gas constant (RT):             0.592 kcal/mol
   Translational Entropy:        40.310  cal/mol.K
   Rotational Entropy:           28.021  cal/mol.K
   Vibrational Entropy:          17.214  cal/mol.K

   Total Enthalpy:               36.394 kcal/mol
   Total Entropy:                85.546  cal/mol.K
 Total job time:  5839.77s(wall), 45031.91s(cpu)
        *  Thank you very much for using Q-Chem.  Have a nice day.  *
 Q-Chem 5.4, Q-Chem, Inc., Pleasanton, CA (2021)
 Q-Chem 5.4.1 for Intel X86 EM64T Linux

User input:
--------------------------------------------------------------

$rem
JOBTYPE = ts
SCF_GUESS = read
GEOM_OPT_HESSIAN = read
MAX_SCF_CYCLES = 350
GEOM_OPT_DMAX = 60
GEOM_OPT_MAX_CYCLES = 250
METHOD = wB97M-v
BASIS = 6-311++G(2df,2p)
SCF_CONVERGENCE = 7
THRESH = 12
SCF_ALGORITHM = DIIS_GDM
solvent_method = SMD
$end

$molecule
read
$end
--------------------------------------------------------------

   20    -528.8667587509      6.93e-08  Convergence criterion met
 Total energy in the final basis set =     -528.8595955560

             Standard Nuclear Orientation (Angstroms)
    I     Atom           X                Y                Z
 ----------------------------------------------------------------
    1      C       1.4979951295     0.7662471080    -0.1381908963
    2      O       1.8012825456     1.4137528004     0.8763974119
    3      O       1.9813955242     0.8158790991    -1.2922655685
    4      C       0.3677790888    -0.2763323448     0.0085801420
    5      O      -0.0598306152    -0.7986720759    -1.1236275381
    6      O      -0.4185629257    -0.3087505402     1.0219700377
    7      H       0.0748305691    -1.0387043504     1.7115517037
    8      O       1.5884684422    -1.6575878546     0.7199842579
    9      O       1.0517603297    -1.9084675621     1.8602834531
   10      H       0.5715416119    -0.4993123794    -1.8088536033
 ----------------------------------------------------------------

   20    -528.8667566933      7.18e-08  Convergence criterion met
 Total energy in the final basis set =     -528.8595959344
 Final energy is   -528.859595934436
 **  OPTIMIZATION CONVERGED  **

                    Orbital Energies (a.u.)
 --------------------------------------------------------------

 Alpha MOs
 -- Occupied --
-19.4292 -19.4256 -19.3865 -19.3550 -19.3038 -19.3009 -10.5108 -10.4599
 -1.3394  -1.2574  -1.1846  -1.1794  -1.1007  -0.9513  -0.7915  -0.7339
 -0.6991  -0.6229  -0.6110  -0.6057  -0.6013  -0.5501  -0.5445  -0.5278
 -0.5109  -0.4819  -0.4604  -0.3968  -0.3866  -0.3849  -0.3757  -0.3624

 Beta MOs
 -- Occupied --
-19.4134 -19.4108 -19.3866 -19.3551 -19.3038 -19.3009 -10.5111 -10.4599
 -1.3125  -1.2554  -1.1846  -1.1791  -1.1006  -0.9111  -0.7893  -0.7326
 -0.6936  -0.6212  -0.6049  -0.5821  -0.5502  -0.5420  -0.5354  -0.5198
 -0.5016  -0.4761  -0.4587  -0.3879  -0.3840  -0.3760  -0.3524

          Ground-State Mulliken Net Atomic Charges

     Atom                 Charge (a.u.)    Spin (a.u.)
  --------------------------------------------------------
      1 C                     0.494670      -0.000817
      2 O                    -0.628724       0.000271
      3 O                    -0.617587       0.000283
      4 C                     0.123313      -0.019312
      5 O                    -0.293197      -0.003556
      6 O                    -0.443164      -0.001058
      7 H                     0.370515      -0.008654
      8 O                    -0.161192       0.530649
      9 O                    -0.173683       0.502208
     10 H                     0.329051      -0.000016
  --------------------------------------------------------
  Sum of atomic charges =    -1.000000

                    Cartesian Multipole Moments
 -----------------------------------------------------------------
    Charge (ESU x 10^10)
                -4.8032
    Dipole Moment (Debye)
         X      -8.3511      Y      -2.9054      Z      -2.3246
       Tot       9.1425
    Quadrupole Moments (Debye-Ang)
        XX     -68.8551     XY      -8.0748     YY     -60.0382
        XZ      -1.3777     YZ       1.2807     ZZ     -52.8957

 Total job time:  226.43s(wall), 1749.24s(cpu)
        *  Thank you very much for using Q-Chem.  Have a nice day.  *
