 Q-Chem 5.4, Q-Chem, Inc., Pleasanton, CA (2021)
 Q-Chem 5.4.1 for Intel X86 EM64T Linux

User input:
--------------------------------------------------------------
$molecule
-1 2
C    1.5844599    0.7594531   -0.0366919
O    1.6319663    1.6456081    0.7783033
O    2.4088445    0.6104429   -1.0653695
C    0.5464731   -0.3561399    0.0029388
O    0.2543258   -0.8575610   -1.2204214
O   -0.3789196   -0.2825919    0.8689141
H    0.0988543   -1.1618877    1.6971768
O    1.6270215   -1.6027184    0.7737238
O    0.9821077   -1.8702309    1.8414499
H   -0.2984738   -0.3763224   -1.8041945
$end

$rem
BASIS = 6-311++G(2df,2p)
GUI = 2
JOB_TYPE = Frequency
METHOD = wB97M-V
SCF_ALGORITHM = DIIS_GDM
MAX_SCF_CYCLES = 400
SCF_CONVERGENCE = 6
THRESH = 11
SYMMETRY_IGNORE = 1
solvent_method = SMD
$end

--------------------------------------------------------------

   18    -528.8333328301      5.69e-07  Convergence criterion met
 Total energy in the final basis set =     -528.8264247845
   16    -528.8334441515      7.06e-07  Convergence criterion met
 Total energy in the final basis set =     -528.8265292984
   16    -528.8332200925      6.95e-07  Convergence criterion met
 Total energy in the final basis set =     -528.8263188961
   16    -528.8332792590      7.00e-07  Convergence criterion met
 Total energy in the final basis set =     -528.8263687908
   16    -528.8333840037      6.97e-07  Convergence criterion met
 Total energy in the final basis set =     -528.8264784006
   16    -528.8331753898      6.88e-07  Convergence criterion met
 Total energy in the final basis set =     -528.8262724030
   16    -528.8334881367      7.07e-07  Convergence criterion met
 Total energy in the final basis set =     -528.8265751061
   16    -528.8333168134      6.93e-07  Convergence criterion met
 Frequency:      -946.80                -835.64                 -97.51
 Force Cnst:      0.5872                 0.6272                 0.0515
 Red. Mass:       1.1119                 1.5245                 9.1855
 IR Intens:      303.151                365.628                 20.828
 Frequency:        93.18                 216.50                 222.32
 Force Cnst:      0.0500                 0.2761                 0.2318
 Red. Mass:       9.7721                 9.9975                 7.9605
 IR Intens:       16.439                 58.394                 17.865
 Frequency:       309.21                 399.89                 456.47
 Force Cnst:      0.6044                 0.2333                 0.9785
 Red. Mass:      10.7296                 2.4762                 7.9707
 IR Intens:       52.146                639.759                 70.315
 Frequency:       520.92                 620.98                 729.76
 Force Cnst:      1.2072                 2.3756                 3.4485
 Red. Mass:       7.5507                10.4557                10.9905
 IR Intens:       19.563                 18.348                 98.353
 Frequency:       748.95                 792.25                 850.41
 Force Cnst:      1.1951                 3.0579                 5.5365
 Red. Mass:       3.6163                 8.2691                12.9937
 IR Intens:      113.582                 59.655                 85.258
 Frequency:       978.27                1034.23                1102.72
 Force Cnst:      1.7774                 0.7162                 5.2297
 Red. Mass:       3.1521                 1.1365                 7.2996
 IR Intens:      311.888                152.081                464.676
 Frequency:      1250.88                1368.57                1549.64
 Force Cnst:      8.8058                16.8379                 8.2223
 Red. Mass:       9.5519                15.2582                 5.8114
 IR Intens:      841.364                 46.583                436.627
 Frequency:      1763.43                1953.09                4195.88
 Force Cnst:     23.8069                 2.3268                11.0742
 Red. Mass:      12.9937                 1.0353                 1.0676
 IR Intens:      973.654                238.232                357.042

 STANDARD THERMODYNAMIC QUANTITIES AT   298.15 K  AND     1.00 ATM

   This Molecule has  3 Imaginary Frequencies
   Zero point vibrational energy:       30.246 kcal/mol

   Atom    1 Element C  Has Mass   12.00000
   Atom    2 Element O  Has Mass   15.99491
   Atom    3 Element O  Has Mass   15.99491
   Atom    4 Element C  Has Mass   12.00000
   Atom    5 Element O  Has Mass   15.99491
   Atom    6 Element O  Has Mass   15.99491
   Atom    7 Element H  Has Mass    1.00783
   Atom    8 Element O  Has Mass   15.99491
   Atom    9 Element O  Has Mass   15.99491
   Atom   10 Element H  Has Mass    1.00783
   Molecular Mass:   121.985120 amu
   Principal axes and moments of inertia in amu*Bohr^2:
                             1           2           3
    Eigenvalues --      609.09806   992.86337  1095.90825
          X               0.35587     0.38191     0.85294
          Y               0.78898     0.36637    -0.49323
          Z              -0.50086     0.84848    -0.17094
   Rotational Symmetry Number is   1
   The Molecule is an Asymmetric Top
   Translational Enthalpy:        0.889 kcal/mol
   Rotational Enthalpy:           0.889 kcal/mol
   Vibrational Enthalpy:         32.512 kcal/mol
   gas constant (RT):             0.592 kcal/mol
   Translational Entropy:        40.310  cal/mol.K
   Rotational Entropy:           27.985  cal/mol.K
   Vibrational Entropy:          12.873  cal/mol.K

   Total Enthalpy:               34.882 kcal/mol
   Total Entropy:                81.168  cal/mol.K
 Total job time:  3862.03s(wall), 55576.30s(cpu)
        *  Thank you very much for using Q-Chem.  Have a nice day.  *
 Q-Chem 5.4, Q-Chem, Inc., Pleasanton, CA (2021)
 Q-Chem 5.4.1 for Intel X86 EM64T Linux

User input:
--------------------------------------------------------------

$rem
JOBTYPE = ts
SCF_GUESS = read
GEOM_OPT_HESSIAN = read
MAX_SCF_CYCLES = 350
GEOM_OPT_DMAX = 60
GEOM_OPT_MAX_CYCLES = 250
METHOD = wB97M-v
BASIS = 6-311++G(2df,2p)
SCF_CONVERGENCE = 7
THRESH = 12
SCF_ALGORITHM = DIIS_GDM
solvent_method = SMD
$end

$molecule
read
$end
--------------------------------------------------------------

   20    -528.8667246158      7.70e-08  Convergence criterion met
 Total energy in the final basis set =     -528.8595738261
   20    -528.8667511998      7.75e-08  Convergence criterion met
 Total energy in the final basis set =     -528.8595891486
   20    -528.8667524806      5.74e-08  Convergence criterion met
 Total energy in the final basis set =     -528.8595925636
   20    -528.8667531292      5.71e-08  Convergence criterion met
 Total energy in the final basis set =     -528.8595883326
   20    -528.8667398198      5.04e-08  Convergence criterion met
 Total energy in the final basis set =     -528.8595880109
   20    -528.8667522707      6.57e-08  Convergence criterion met
 Total energy in the final basis set =     -528.8595952742

             Standard Nuclear Orientation (Angstroms)
    I     Atom           X                Y                Z
 ----------------------------------------------------------------
    1      C       1.4980164545     0.7660547243    -0.1383624944
    2      O       1.8026323618     1.4121745551     0.8766832452
    3      O       1.9798924524     0.8168866210    -1.2928620119
    4      C       0.3676719600    -0.2762671958     0.0083766160
    5      O      -0.0592124773    -0.7989272362    -1.1237456197
    6      O      -0.4187979559    -0.3089060280     1.0215964248
    7      H       0.0738809553    -1.0384616266     1.7114023966
    8      O       1.5892850633    -1.6572546214     0.7212176276
    9      O       1.0518619496    -1.9085083887     1.8610669549
   10      H       0.5714289363    -0.4987389036    -1.8095437390
 ----------------------------------------------------------------

   20    -528.8667587509      5.94e-08  Convergence criterion met
 Total energy in the final basis set =     -528.8595955560
 Final energy is   -528.859595555991
 **  OPTIMIZATION CONVERGED  **

                    Orbital Energies (a.u.)
 --------------------------------------------------------------

 Alpha MOs
 -- Occupied --
-19.4290 -19.4254 -19.3865 -19.3551 -19.3038 -19.3009 -10.5108 -10.4599
 -1.3392  -1.2574  -1.1847  -1.1795  -1.1007  -0.9511  -0.7916  -0.7339
 -0.6990  -0.6230  -0.6109  -0.6056  -0.6013  -0.5501  -0.5446  -0.5277
 -0.5110  -0.4819  -0.4605  -0.3967  -0.3865  -0.3848  -0.3757  -0.3623

 Beta MOs
 -- Occupied --
-19.4132 -19.4107 -19.3866 -19.3552 -19.3038 -19.3009 -10.5111 -10.4598
 -1.3124  -1.2555  -1.1846  -1.1792  -1.1007  -0.9109  -0.7894  -0.7326
 -0.6936  -0.6212  -0.6049  -0.5820  -0.5503  -0.5420  -0.5353  -0.5198
 -0.5017  -0.4761  -0.4588  -0.3879  -0.3840  -0.3760  -0.3522

          Ground-State Mulliken Net Atomic Charges

     Atom                 Charge (a.u.)    Spin (a.u.)
  --------------------------------------------------------
      1 C                     0.494664      -0.000792
      2 O                    -0.628931       0.000282
      3 O                    -0.617395       0.000255
      4 C                     0.123767      -0.019366
      5 O                    -0.293192      -0.003583
      6 O                    -0.442681      -0.001054
      7 H                     0.370462      -0.008662
      8 O                    -0.161607       0.530663
      9 O                    -0.174264       0.502273
     10 H                     0.329179      -0.000016
  --------------------------------------------------------
  Sum of atomic charges =    -1.000000

                    Cartesian Multipole Moments
 -----------------------------------------------------------------
    Charge (ESU x 10^10)
                -4.8032
    Dipole Moment (Debye)
         X      -8.3587      Y      -2.8961      Z      -2.3332
       Tot       9.1487
    Quadrupole Moments (Debye-Ang)
        XX     -68.8605     XY      -8.0626     YY     -60.0421
        XZ      -1.4028     YZ       1.3016     ZZ     -52.9046

 Total job time:  4379.64s(wall), 63330.24s(cpu)
        *  Thank you very much for using Q-Chem.  Have a nice day.  *
