 Q-Chem 5.4, Q-Chem, Inc., Pleasanton, CA (2021)
 Q-Chem 5.4.1 for Intel X86 EM64T Linux

User input:
--------------------------------------------------------------
$molecule
-2 1
C        -0.9046136640    1.8239517228   -0.1753730952
O        -0.7739698196    1.5716898312    1.0872241184
O        -0.9036886682    3.0480339418   -0.5938711580
O        -1.0341437483    0.8511518040   -1.0185559653
$end

$rem
BASIS = 6-311++G(2df,2p)
GUI = 2
JOB_TYPE = Frequency
METHOD = wB97M-V
SOLVENT_METHOD = SMD
SCF_ALGORITHM = DIIS_GDM
MAX_SCF_CYCLES = 400
SCF_CONVERGENCE = 7
THRESH = 12
$end
--------------------------------------------------------------

   10    -264.1270598464      5.09e-08  Convergence criterion met
 Total energy in the final basis set =     -264.1206996581
   10    -264.1270593845      6.43e-08  Convergence criterion met
 Total energy in the final basis set =     -264.1206991927
   10    -264.1270593206      3.24e-08  Convergence criterion met
 Total energy in the final basis set =     -264.1206991490
   10    -264.1270587582      8.48e-08  Convergence criterion met
 Total energy in the final basis set =     -264.1206986487
   11    -264.1270587745      4.62e-08  Convergence criterion met
 Total energy in the final basis set =     -264.1206986228
   11    -264.1270588100      3.50e-08  Convergence criterion met
 Total energy in the final basis set =     -264.1206986510
   11    -264.1270587549      5.04e-08  Convergence criterion met
 Total energy in the final basis set =     -264.1206986519
   10    -264.1270590100      7.64e-08  Convergence criterion met
 Total energy in the final basis set =     -264.1206994927
   10    -264.1270573439      6.26e-08  Convergence criterion met
 Total energy in the final basis set =     -264.1206993050
   10    -264.1270607671      2.70e-08  Convergence criterion met
 Total energy in the final basis set =     -264.1206999157
   10    -264.1270587985      5.73e-08  Convergence criterion met
 Total energy in the final basis set =     -264.1206992786
   10    -264.1270642683      3.76e-08  Convergence criterion met
 Total energy in the final basis set =     -264.1206991105
   10    -264.1270542677      6.02e-08  Convergence criterion met
 Total energy in the final basis set =     -264.1206990932
   10    -264.1270635401      5.12e-08  Convergence criterion met
 Total energy in the final basis set =     -264.1206990396
   10    -264.1270551887      5.71e-08  Convergence criterion met
 Total energy in the final basis set =     -264.1206993468

                    Orbital Energies (a.u.)
 --------------------------------------------------------------

 Alpha MOs
 -- Occupied --
-19.2485 -19.2484 -19.2484 -10.4373  -1.1529  -1.0295  -1.0293  -0.5883
 -0.5165  -0.5165  -0.5120  -0.3657  -0.3657  -0.3444  -0.3443  -0.2985

          Ground-State Mulliken Net Atomic Charges

     Atom                 Charge (a.u.)
  ----------------------------------------
      1 C                     0.549020
      2 O                    -0.849838
      3 O                    -0.848879
      4 O                    -0.850304
  ----------------------------------------
  Sum of atomic charges =    -2.000000

                    Cartesian Multipole Moments
 -----------------------------------------------------------------
    Charge (ESU x 10^10)
                -9.6064
    Dipole Moment (Debye)
         X       8.6831      Y     -17.5106      Z       1.6856
       Tot      19.6178
    Quadrupole Moments (Debye-Ang)
        XX     -34.0944     XY      15.3322     YY     -71.1758
        XZ      -2.9668     YZ       3.1218     ZZ     -39.4192

             Standard Nuclear Orientation (Angstroms)
    I     Atom           X                Y                Z
 ----------------------------------------------------------------
    1      C      -0.9046136640     1.8239517228    -0.1753730952
    2      O      -0.7739698196     1.5716898312     1.0872241184
    3      O      -0.9036886682     3.0480339418    -0.5938711580
    4      O      -1.0341437483     0.8511518040    -1.0185559653
 ----------------------------------------------------------------

 Frequency:       665.49                 669.78                 859.89
 Force Cnst:      4.0672                 4.1228                 5.5031
 Red. Mass:      15.5870                15.5982                12.6321
 IR Intens:        9.108                  7.809                 55.639
 Frequency:      1045.96                1297.21                1303.02
 Force Cnst:     10.3100                12.7870                12.8937
 Red. Mass:      15.9949                12.8974                12.8892
 IR Intens:        0.009               1564.003               1560.224

 STANDARD THERMODYNAMIC QUANTITIES AT   298.15 K  AND     1.00 ATM

   This Molecule has  0 Imaginary Frequencies
   Zero point vibrational energy:        8.351 kcal/mol

   Atom    1 Element C  Has Mass   12.00000
   Atom    2 Element O  Has Mass   15.99491
   Atom    3 Element O  Has Mass   15.99491
   Atom    4 Element O  Has Mass   15.99491
   Molecular Mass:    59.984730 amu
   Principal axes and moments of inertia in amu*Bohr^2:
                             1           2           3
    Eigenvalues --      143.39715   143.47937   286.87648
          X               0.02816     0.11264     0.99324
          Y               0.99575     0.08398    -0.03775
          Z              -0.08766     0.99008    -0.10980
   Rotational Symmetry Number is   1
   The Molecule is an Asymmetric Top
   Translational Enthalpy:        0.889 kcal/mol
   Rotational Enthalpy:           0.889 kcal/mol
   Vibrational Enthalpy:          8.582 kcal/mol
   gas constant (RT):             0.592 kcal/mol
   Translational Entropy:        38.194  cal/mol.K
   Rotational Entropy:           23.294  cal/mol.K
   Vibrational Entropy:           0.990  cal/mol.K

   Total Enthalpy:               10.952 kcal/mol
   Total Entropy:                62.478  cal/mol.K
 Total job time:  511.16s(wall), 2485.04s(cpu)
        *  Thank you very much for using Q-Chem.  Have a nice day.  *
