 Q-Chem 5.4, Q-Chem, Inc., Pleasanton, CA (2021)
 Q-Chem 5.4.1 for Intel X86 EM64T Linux

User input:
--------------------------------------------------------------
$molecule
-2 1
C        -0.9046692448    1.8239220716   -0.1753806859
O        -0.7734144711    1.5706981761    1.0924272302
O        -0.9036675809    3.0530490802   -0.5955667480
O        -1.0346646033    0.8471579720   -1.0220558964
$end

$rem
BASIS = 6-311++G(2df,2p)
GUI = 2
JOB_TYPE = Optimization
METHOD = wB97M-V
SCF_ALGORITHM = DIIS_GDM
MAX_SCF_CYCLES = 400
GEOM_OPT_MAX_CYCLES = 150
SCF_CONVERGENCE = 7
THRESH = 12
UNRESTRICTED = 1
Solvent_method = SMD
$end
--------------------------------------------------------------

   11    -264.1268528085      5.69e-08  Convergence criterion met
 Total energy in the final basis set =     -264.1206019288
   10    -264.1270097185      4.85e-08  Convergence criterion met
 Total energy in the final basis set =     -264.1206875545

             Standard Nuclear Orientation (Angstroms)
    I     Atom           X                Y                Z
 ----------------------------------------------------------------
    1      C      -0.9046136640     1.8239517228    -0.1753730952
    2      O      -0.7739698196     1.5716898312     1.0872241184
    3      O      -0.9036886682     3.0480339418    -0.5938711580
    4      O      -1.0341437483     0.8511518040    -1.0185559653
 ----------------------------------------------------------------

   10    -264.1270598469      5.38e-08  Convergence criterion met
 Total energy in the final basis set =     -264.1206996585
 Final energy is   -264.120699658512
 **  OPTIMIZATION CONVERGED  **

                    Orbital Energies (a.u.)
 --------------------------------------------------------------

 Alpha MOs
 -- Occupied --
-19.2484 -19.2484 -19.2483 -10.4372  -1.1530  -1.0296  -1.0293  -0.5882
 -0.5166  -0.5165  -0.5120  -0.3658  -0.3657  -0.3444  -0.3443  -0.2984

 Beta MOs
 -- Occupied --
-19.2484 -19.2484 -19.2483 -10.4372  -1.1530  -1.0296  -1.0293  -0.5882
 -0.5166  -0.5165  -0.5120  -0.3658  -0.3657  -0.3444  -0.3443  -0.2984

          Ground-State Mulliken Net Atomic Charges

     Atom                 Charge (a.u.)    Spin (a.u.)
  --------------------------------------------------------
      1 C                     0.549133       0.000000
      2 O                    -0.850242       0.000000
      3 O                    -0.849113       0.000000
      4 O                    -0.849778       0.000000
  --------------------------------------------------------
  Sum of atomic charges =    -2.000000

                    Cartesian Multipole Moments
 -----------------------------------------------------------------
    Charge (ESU x 10^10)
                -9.6064
    Dipole Moment (Debye)
         X       8.6825      Y     -17.5139      Z       1.6775
       Tot      19.6198
    Quadrupole Moments (Debye-Ang)
        XX     -34.0919     XY      15.3342     YY     -71.1858
        XZ      -2.9593     YZ       3.1139     ZZ     -39.4125

 Total job time:  70.02s(wall), 319.15s(cpu)
        *  Thank you very much for using Q-Chem.  Have a nice day.  *
