 Q-Chem 5.4, Q-Chem, Inc., Pleasanton, CA (2021)
 Q-Chem 5.4.1 for Intel X86 EM64T Linux

User input:
--------------------------------------------------------------
$molecule
-1 2
C         0.0335825890    0.2156391192    0.2364698461
O         1.2001413651    0.0826017418    0.8943481755
H        -1.1277621868    1.3766541534   -0.6298194523
C        -0.8393693190   -0.8929137460   -0.0274891381
O        -0.5062190370   -2.0526716429    0.3744233366
O        -1.9104150558   -0.6008046154   -0.6669935653
O        -0.2722929998    1.4647120681   -0.1745756269
H         1.6345905442    0.9437645218    0.9577898244
$end

$rem
BASIS = 6-31G(d)
JOB_TYPE = SP
METHOD = wB97M-V
SCF_ALGORITHM = DIIS_GDM
MAX_SCF_CYCLES = 400
SCF_CONVERGENCE = 7
THRESH = 12
Solvent_method = SMD
$end
--------------------------------------------------------------

             Standard Nuclear Orientation (Angstroms)
    I     Atom           X                Y                Z
 ----------------------------------------------------------------
    1      C       0.0335825890     0.2156391192     0.2364698461
    2      O       1.2001413651     0.0826017418     0.8943481755
    3      H      -1.1277621868     1.3766541534    -0.6298194523
    4      C      -0.8393693190    -0.8929137460    -0.0274891381
    5      O      -0.5062190370    -2.0526716429     0.3744233366
    6      O      -1.9104150558    -0.6008046154    -0.6669935653
    7      O      -0.2722929998     1.4647120681    -0.1745756269
    8      H       1.6345905442     0.9437645218     0.9577898244
 ----------------------------------------------------------------

   17    -378.3108785207      4.19e-08  Convergence criterion met
 Total energy in the final basis set =     -378.3029271376

                    Orbital Energies (a.u.)
 --------------------------------------------------------------

 Alpha MOs
 -- Occupied --
-19.3806 -19.3762 -19.2728 -19.2691 -10.4369 -10.4248  -1.2230  -1.1548
 -1.1237  -1.0363  -0.8005  -0.6872  -0.6497  -0.5597  -0.5572  -0.5033
 -0.5002  -0.4842  -0.4730  -0.4455  -0.3453  -0.3440  -0.3234  -0.2171

 Beta MOs
 -- Occupied --
-19.3773 -19.3728 -19.2703 -19.2665 -10.4271 -10.4246  -1.2139  -1.1471
 -1.1191  -1.0310  -0.7818  -0.6806  -0.6422  -0.5524  -0.5300  -0.4989
 -0.4954  -0.4802  -0.4558  -0.4172  -0.3394  -0.3221  -0.3200

          Ground-State Mulliken Net Atomic Charges

     Atom                 Charge (a.u.)    Spin (a.u.)
  --------------------------------------------------------
      1 C                     0.391781       0.610671
      2 O                    -0.645993       0.090193
      3 H                     0.449557      -0.004219
      4 C                     0.484086       0.022929
      5 O                    -0.747421       0.098431
      6 O                    -0.751134       0.092941
      7 O                    -0.649732       0.093104
      8 H                     0.468857      -0.004050
  --------------------------------------------------------
  Sum of atomic charges =    -1.000000

                    Cartesian Multipole Moments
 -----------------------------------------------------------------
    Charge (ESU x 10^10)
                -4.8032
    Dipole Moment (Debye)
         X       5.9126      Y       8.9183      Z       0.2457
       Tot      10.7030
    Quadrupole Moments (Debye-Ang)
        XX     -42.7934     XY      -4.9562     YY     -49.2831
        XZ      -2.0920     YZ       2.4017     ZZ     -35.9644

 Total job time:  58.98s(wall), 113.45s(cpu)
        *  Thank you very much for using Q-Chem.  Have a nice day.  *
