 Q-Chem 5.4, Q-Chem, Inc., Pleasanton, CA (2021)
 Q-Chem 5.4.1 for Intel X86 EM64T Linux

User input:
--------------------------------------------------------------
$molecule
0 1
O        -0.6678554955    1.1020238419    0.2612852811
C        -0.3656352537   -0.2442880346    0.5330946241
O        -1.0087321239   -1.1308296264   -0.3381898993
C         1.1413976584   -0.4349469172    0.3500214906
O         1.8712152688    0.6730078684    0.4158507821
O         1.6501434675   -1.5191886229    0.2019956850
H        -1.3958858049    1.3819609322    0.8267715306
H        -1.8915177107   -1.3065397044    0.0066128236
H         1.2716528173    1.4364649447    0.4903475041
H        -0.6024757234   -0.4811881816    1.5723379780
$end

$rem
BASIS = 6-311++G**
JOB_TYPE = SP
METHOD = wB97M-V
SCF_ALGORITHM = DIIS_GDM
MAX_SCF_CYCLES = 400
SCF_CONVERGENCE = 7
THRESH = 12
Solvent_method = SMD
$end
--------------------------------------------------------------

             Standard Nuclear Orientation (Angstroms)
    I     Atom           X                Y                Z
 ----------------------------------------------------------------
    1      O      -0.6678554955     1.1020238419     0.2612852811
    2      C      -0.3656352537    -0.2442880346     0.5330946241
    3      O      -1.0087321239    -1.1308296264    -0.3381898993
    4      C       1.1413976584    -0.4349469172     0.3500214906
    5      O       1.8712152688     0.6730078684     0.4158507821
    6      O       1.6501434675    -1.5191886229     0.2019956850
    7      H      -1.3958858049     1.3819609322     0.8267715306
    8      H      -1.8915177107    -1.3065397044     0.0066128236
    9      H       1.2716528173     1.4364649447     0.4903475041
   10      H      -0.6024757234    -0.4811881816     1.5723379780
 ----------------------------------------------------------------

   14    -379.5598560979      9.18e-08  Convergence criterion met
 Total energy in the final basis set =     -379.5529331343

                    Orbital Energies (a.u.)
 --------------------------------------------------------------

 Alpha MOs
 -- Occupied --
-19.3899 -19.3615 -19.3564 -19.3407 -10.4984 -10.4701  -1.2620  -1.2115
 -1.1770  -1.1487  -0.8525  -0.7419  -0.6769  -0.6635  -0.6620  -0.5874
 -0.5653  -0.5305  -0.5182  -0.4940  -0.4463  -0.4331  -0.4280  -0.4007

          Ground-State Mulliken Net Atomic Charges

     Atom                 Charge (a.u.)
  ----------------------------------------
      1 O                    -0.379009
      2 C                    -0.149266
      3 O                    -0.356936
      4 C                     0.159890
      5 O                    -0.207432
      6 O                    -0.392140
      7 H                     0.350775
      8 H                     0.339514
      9 H                     0.323906
     10 H                     0.310699
  ----------------------------------------
  Sum of atomic charges =     0.000000

                    Cartesian Multipole Moments
 -----------------------------------------------------------------
    Charge (ESU x 10^10)
                 0.0000
    Dipole Moment (Debye)
         X      -6.4874      Y       4.1565      Z       4.3313
       Tot       8.8387
    Quadrupole Moments (Debye-Ang)
        XX     -36.5739     XY       6.4142     YY     -38.5121
        XZ      -5.0809     YZ       0.9921     ZZ     -32.1568

 Total job time:  33.89s(wall), 130.82s(cpu)
        *  Thank you very much for using Q-Chem.  Have a nice day.  *
