 Q-Chem 5.4, Q-Chem, Inc., Pleasanton, CA (2021)
 Q-Chem 5.4.1 for Intel X86 EM64T Linux

User input:
--------------------------------------------------------------
$molecule
0 2
C         1.4852578028   -0.3677826012   -0.4442991730
O         1.9404829139   -1.2079510295   -1.4843795256
C         0.0690938744    0.1342318223   -0.7265367971
O        -0.8644696628   -0.9077304434   -0.8049627698
O         0.0725886945    0.8382235305   -1.9197368852
O         2.3705587272    0.7060376022   -0.3251156443
H         1.4891703950   -0.8952625560    0.5105522959
H         1.3285012100   -1.9504279673   -1.5658141422
H        -0.2073743679    0.8276091866    0.1389543591
H        -0.9427581896   -1.3259836206    0.0625288767
H        -0.7655400419    1.3080800657   -2.0105723678
H         2.2547608872    1.2786060596   -1.0958986803
O        -0.0594380358    1.9239956717    1.2555433624
H         0.9053177929    1.9879354794    1.1373053912
$end

$rem
BASIS = 6-311++G(2df,2p)
GUI = 2
JOB_TYPE = Frequency
METHOD = wB97M-V
SOLVENT_METHOD = SMD
SCF_ALGORITHM = DIIS_GDM
MAX_SCF_CYCLES = 400
SCF_CONVERGENCE = 7
THRESH = 12
UNRESTRICTED = 1
SYMMETRY_IGNORE = 1
$end

--------------------------------------------------------------

   22    -456.5053408480      9.77e-08  Convergence criterion met
 Total energy in the final basis set =     -456.5000166035
   19    -456.5053462225      9.28e-08  Convergence criterion met
 Total energy in the final basis set =     -456.5000157165
   19    -456.5053336953      9.63e-08  Convergence criterion met
 Total energy in the final basis set =     -456.5000155804
   19    -456.5053435800      9.37e-08  Convergence criterion met
 Total energy in the final basis set =     -456.5000155590
   19    -456.5053362589      8.98e-08  Convergence criterion met
 Total energy in the final basis set =     -456.5000154949
   19    -456.5053392935      8.88e-08  Convergence criterion met
 Total energy in the final basis set =     -456.5000153342
   19    -456.5053402737      8.65e-08  Convergence criterion met
 Total energy in the final basis set =     -456.5000155057
   19    -456.5053393533      9.58e-08  Convergence criterion met
 Frequency:      -343.30                  46.08                  64.88
 Force Cnst:      0.3987                 0.0068                 0.0147
 Red. Mass:       5.7419                 5.4469                 5.9207
 IR Intens:      907.266                 34.870                 16.035
 Frequency:       114.62                 182.42                 188.04
 Force Cnst:      0.0367                 0.0233                 0.0239
 Red. Mass:       4.7405                 1.1902                 1.1483
 IR Intens:       15.706                 15.116                328.594
 Frequency:       249.03                 274.56                 279.65
 Force Cnst:      0.0849                 0.1193                 0.0635
 Red. Mass:       2.3243                 2.6850                 1.3784
 IR Intens:       52.806                 50.005                137.395
 Frequency:       318.25                 359.46                 438.93
 Force Cnst:      0.0718                 0.0909                 0.6274
 Red. Mass:       1.2030                 1.1942                 5.5270
 IR Intens:      458.775                192.385                 52.301
 Frequency:       528.75                 597.24                 666.67
 Force Cnst:      0.7194                 0.7099                 0.3398
 Red. Mass:       4.3676                 3.3780                 1.2975
 IR Intens:       36.289                 23.088                128.842
 Frequency:       765.31                 896.88                1084.87
 Force Cnst:      1.6199                 1.5115                 1.9076
 Red. Mass:       4.6940                 3.1892                 2.7510
 IR Intens:      111.442                 80.493                465.443
 Frequency:      1120.09                1159.55                1205.35
 Force Cnst:      1.3760                 0.9392                 1.0337
 Red. Mass:       1.8615                 1.1855                 1.2076
 IR Intens:      112.358               1179.638                194.023
 Frequency:      1209.31                1251.65                1274.19
 Force Cnst:      0.9897                 4.2587                 2.1610
 Red. Mass:       1.1486                 4.6138                 2.2591
 IR Intens:      400.605                260.729                326.705
 Frequency:      1318.49                1369.89                1415.55
 Force Cnst:      1.4719                 1.8074                 1.7981
 Red. Mass:       1.4370                 1.6347                 1.5230
 IR Intens:      101.745                124.828                 84.810
 Frequency:      1432.08                1446.09                1966.55
 Force Cnst:      1.8947                 2.0308                 2.5518
 Red. Mass:       1.5680                 1.6482                 1.1199
 IR Intens:       98.971                160.154               4246.929
 Frequency:      3091.51                3711.10                3777.21
 Force Cnst:      6.1255                 8.6600                 8.9579
 Red. Mass:       1.0878                 1.0672                 1.0656
 IR Intens:       45.220                140.530                135.964
 Frequency:      3800.09                3804.40                3810.16
 Force Cnst:      9.0710                 9.0908                 9.1207
 Red. Mass:       1.0661                 1.0661                 1.0663
 IR Intens:      162.799                140.820                172.370

 STANDARD THERMODYNAMIC QUANTITIES AT   298.15 K  AND     1.00 ATM

   This Molecule has  1 Imaginary Frequencies
   Zero point vibrational energy:       64.644 kcal/mol

   Atom    1 Element C  Has Mass   12.00000
   Atom    2 Element O  Has Mass   15.99491
   Atom    3 Element C  Has Mass   12.00000
   Atom    4 Element O  Has Mass   15.99491
   Atom    5 Element O  Has Mass   15.99491
   Atom    6 Element O  Has Mass   15.99491
   Atom    7 Element H  Has Mass    1.00783
   Atom    8 Element H  Has Mass    1.00783
   Atom    9 Element H  Has Mass    1.00783
   Atom   10 Element H  Has Mass    1.00783
   Atom   11 Element H  Has Mass    1.00783
   Atom   12 Element H  Has Mass    1.00783
   Atom   13 Element O  Has Mass   15.99491
   Atom   14 Element H  Has Mass    1.00783
   Molecular Mass:   111.029360 amu
   Principal axes and moments of inertia in amu*Bohr^2:
                             1           2           3
    Eigenvalues --      668.59236   871.43854  1167.77038
          X              -0.42608     0.90401    -0.03488
          Y               0.69672     0.30330    -0.65007
          Z               0.57709     0.30128     0.75907
   Rotational Symmetry Number is   1
   The Molecule is an Asymmetric Top
   Translational Enthalpy:        0.889 kcal/mol
   Rotational Enthalpy:           0.889 kcal/mol
   Vibrational Enthalpy:         68.869 kcal/mol
   gas constant (RT):             0.592 kcal/mol
   Translational Entropy:        40.030  cal/mol.K
   Rotational Entropy:           28.011  cal/mol.K
   Vibrational Entropy:          27.318  cal/mol.K

   Total Enthalpy:               71.239 kcal/mol
   Total Entropy:                95.358  cal/mol.K
 Total job time:  10755.27s(wall), 83327.53s(cpu)
        *  Thank you very much for using Q-Chem.  Have a nice day.  *
 Q-Chem 5.4, Q-Chem, Inc., Pleasanton, CA (2021)
 Q-Chem 5.4.1 for Intel X86 EM64T Linux

User input:
--------------------------------------------------------------

$molecule
read
$end

$rem
JOBTYPE            rpath
SCF_GUESS          read
RPATH_MAX_CYCLES   30
BASIS = 6-311++G(2df,2p)
METHOD = wB97M-V
SOLVENT_METHOD = SMD
SCF_ALGORITHM = DIIS_GDM
SCF_CONVERGENCE = 7
THRESH = 12
$end
--------------------------------------------------------------

 Total energy in the final basis set =     -456.5390492700
   14    -456.5457327047      7.43e-08  Convergence criterion met
 Total energy in the final basis set =     -456.5395055718
   13    -456.5437090325      6.63e-08  Convergence criterion met
 Total energy in the final basis set =     -456.5377129471
   14    -456.5458300250      7.19e-08  Convergence criterion met
 Total energy in the final basis set =     -456.5396512298
   14    -456.5416443872      2.37e-08  Convergence criterion met
 Total energy in the final basis set =     -456.5356437956
   14    -456.5458534857      7.35e-08  Convergence criterion met
 Total energy in the final basis set =     -456.5396883743
   14    -456.5458705730      7.91e-08  Convergence criterion met
 Total energy in the final basis set =     -456.5396882337
   14    -456.5458679715      7.43e-08  Convergence criterion met
 Total energy in the final basis set =     -456.5396942895

                    Orbital Energies (a.u.)
 --------------------------------------------------------------

 Alpha MOs
 -- Occupied --
-19.3755 -19.3740 -19.3528 -19.3459 -19.3272 -10.4554 -10.4517  -1.2402
 -1.2005  -1.1691  -1.1390  -1.1333  -0.8524  -0.7603  -0.6907  -0.6680
 -0.6414  -0.6328  -0.5876  -0.5743  -0.5429  -0.5164  -0.5071  -0.4884
 -0.4743  -0.4674  -0.4293  -0.4268  -0.4032  -0.2796

 Beta MOs
 -- Occupied --
-19.3717 -19.3712 -19.3528 -19.3446 -19.3256 -10.4551 -10.4395  -1.2316
 -1.1979  -1.1612  -1.1369  -1.1298  -0.8406  -0.7538  -0.6845  -0.6611
 -0.6361  -0.6250  -0.5747  -0.5595  -0.5354  -0.5105  -0.5014  -0.4784
 -0.4669  -0.4509  -0.4276  -0.4246  -0.3968

          Ground-State Mulliken Net Atomic Charges

     Atom                 Charge (a.u.)    Spin (a.u.)
  --------------------------------------------------------
      1 C                     0.012499      -0.017521
      2 O                    -0.450786       0.035500
      3 C                    -0.192142       0.773550
      4 O                    -0.357162       0.097304
      5 O                    -0.354036       0.073393
      6 O                    -0.375674      -0.000653
      7 H                     0.278027       0.002722
      8 H                     0.325132      -0.000583
      9 H                     0.411065       0.007246
     10 H                     0.357208      -0.007417
     11 H                     0.372769      -0.001266
     12 H                     0.325478       0.000153
     13 O                    -0.672643       0.037678
     14 H                     0.320266      -0.000105
  --------------------------------------------------------
  Sum of atomic charges =     0.000000

                    Cartesian Multipole Moments
 -----------------------------------------------------------------
    Charge (ESU x 10^10)
                 0.0000
    Dipole Moment (Debye)
         X      -2.4412      Y      -2.4530      Z      -0.6142
       Tot       3.5148
    Quadrupole Moments (Debye-Ang)
        XX     -52.1252     XY       3.7352     YY     -39.2834
        XZ       5.5153     YZ      -8.7732     ZZ     -48.4488

             Standard Nuclear Orientation (Angstroms)
    I     Atom           X                Y                Z
 ----------------------------------------------------------------
    1      C       1.4852578028    -0.3677826012    -0.4442991730
    2      O       1.9404829139    -1.2079510295    -1.4843795256
    3      C       0.0690938744     0.1342318223    -0.7265367971
    4      O      -0.8644696628    -0.9077304434    -0.8049627698
    5      O       0.0725886945     0.8382235305    -1.9197368852
    6      O       2.3705587272     0.7060376022    -0.3251156443
    7      H       1.4891703950    -0.8952625560     0.5105522959
    8      H       1.3285012100    -1.9504279673    -1.5658141422
    9      H      -0.2073743679     0.8276091866     0.1389543591
   10      H      -0.9427581896    -1.3259836206     0.0625288767
   11      H      -0.7655400419     1.3080800657    -2.0105723678
   12      H       2.2547608872     1.2786060596    -1.0958986803
   13      O      -0.0594380358     1.9239956717     1.2555433624
   14      H       0.9053177929     1.9879354794     1.1373053912
 ----------------------------------------------------------------

 Total job time:  7566.33s(wall), 58455.60s(cpu)
        *  Thank you very much for using Q-Chem.  Have a nice day.  *
