 Q-Chem 5.4, Q-Chem, Inc., Pleasanton, CA (2021)
 Q-Chem 5.4.1 for Intel X86 EM64T Linux

User input:
--------------------------------------------------------------
$molecule
0 2
C    1.4168043   -0.2479923   -0.4442604
O    1.9481362   -1.0974557   -1.4313055
C   -0.0183570    0.1774530   -0.7953105
O   -0.8452622   -0.9522198   -0.8911453
O   -0.0237294    0.8561400   -2.0217286
O    2.2413443    0.8779873   -0.2923378
H    1.4089777   -0.7766841    0.5369303
H    1.6096566   -2.0109501   -1.2397002
H   -0.3772638    1.0717870    0.2705781
H   -1.0908979   -1.1990483    0.0380256
H   -0.9118415    1.2929809   -2.0915581
H    2.4087786    1.2479298   -1.1984163
O    0.1767383    1.6375486    1.2440507
H    1.1330678    1.4721049    1.0437463
$end

$rem
BASIS = 6-311++G(2df,2p)
GUI = 2
JOB_TYPE = Frequency
METHOD = wB97M-V
SCF_ALGORITHM = DIIS_GDM
MAX_SCF_CYCLES = 400
SCF_CONVERGENCE = 6
THRESH = 11
SYMMETRY_IGNORE = 1
solvent_method = SMD
$end

--------------------------------------------------------------

   17    -456.4969244128      7.42e-07  Convergence criterion met
 Total energy in the final basis set =     -456.4918186761
   16    -456.4969319854      4.39e-07  Convergence criterion met
 Total energy in the final basis set =     -456.4918206894
   16    -456.4969151977      4.56e-07  Convergence criterion met
 Total energy in the final basis set =     -456.4918148461
   16    -456.4969173987      4.34e-07  Convergence criterion met
 Total energy in the final basis set =     -456.4918109255
   16    -456.4969296113      4.45e-07  Convergence criterion met
 Total energy in the final basis set =     -456.4918242385
   16    -456.4969614811      4.39e-07  Convergence criterion met
 Total energy in the final basis set =     -456.4918582588
   16    -456.4968852965      4.51e-07  Convergence criterion met
 Total energy in the final basis set =     -456.4917768233
   16    -456.4969025919      4.41e-07  Convergence criterion met
 Frequency:     -1798.30                 145.43                 198.93
 Force Cnst:      2.0066                 0.0782                 0.1571
 Red. Mass:       1.0531                 6.2794                 6.7387
 IR Intens:      174.393                  5.237                  6.466
 Frequency:       242.04                 283.79                 296.83
 Force Cnst:      0.2517                 0.2964                 0.3589
 Red. Mass:       7.2914                 6.2467                 6.9129
 IR Intens:       13.582                  9.835                  1.393
 Frequency:       356.73                 440.50                 538.44
 Force Cnst:      0.4422                 0.5552                 0.5314
 Red. Mass:       5.8977                 4.8565                 3.1112
 IR Intens:       31.185                 14.543                 22.565
 Frequency:       606.22                 608.80                 624.46
 Force Cnst:      0.3134                 0.2758                 0.2543
 Red. Mass:       1.4475                 1.2631                 1.1067
 IR Intens:       30.912                132.795                310.998
 Frequency:       634.08                 658.34                 680.20
 Force Cnst:      0.3500                 0.3520                 0.3901
 Red. Mass:       1.4775                 1.3783                 1.4311
 IR Intens:      237.984                223.850                197.774
 Frequency:       772.03                 887.13                1036.45
 Force Cnst:      1.4318                 1.6700                 0.7298
 Red. Mass:       4.0773                 3.6016                 1.1531
 IR Intens:      136.840                 29.861                246.720
 Frequency:      1143.02                1162.37                1193.00
 Force Cnst:      2.0167                 0.9270                 1.9970
 Red. Mass:       2.6199                 1.1645                 2.3815
 IR Intens:      189.775                106.410                281.845
 Frequency:      1248.43                1282.27                1312.03
 Force Cnst:      4.5906                 3.3290                 1.0929
 Red. Mass:       4.9990                 3.4364                 1.0776
 IR Intens:      407.532                276.456                141.973
 Frequency:      1341.74                1410.81                1445.36
 Force Cnst:      1.3117                 1.8776                 2.0974
 Red. Mass:       1.2367                 1.6011                 1.7040
 IR Intens:      299.711                 95.314                128.729
 Frequency:      1453.47                1492.74                1623.23
 Force Cnst:      1.5494                 1.8316                 1.6486
 Red. Mass:       1.2448                 1.3951                 1.0620
 IR Intens:       94.222                 72.483                 82.406
 Frequency:      2887.54                3431.97                3453.98
 Force Cnst:      5.3465                 7.3992                 7.4912
 Red. Mass:       1.0883                 1.0662                 1.0658
 IR Intens:       32.205                415.761                 94.502
 Frequency:      3459.77                3467.94                3471.79
 Force Cnst:      7.5170                 7.5475                 7.5697
 Red. Mass:       1.0659                 1.0651                 1.0659
 IR Intens:      213.268                236.732                138.289

 STANDARD THERMODYNAMIC QUANTITIES AT   298.15 K  AND     1.00 ATM

   This Molecule has  1 Imaginary Frequencies
   Zero point vibrational energy:       64.748 kcal/mol

   Atom    1 Element C  Has Mass   12.00000
   Atom    2 Element O  Has Mass   15.99491
   Atom    3 Element C  Has Mass   12.00000
   Atom    4 Element O  Has Mass   15.99491
   Atom    5 Element O  Has Mass   15.99491
   Atom    6 Element O  Has Mass   15.99491
   Atom    7 Element H  Has Mass    1.00783
   Atom    8 Element H  Has Mass    1.00783
   Atom    9 Element H  Has Mass    1.00783
   Atom   10 Element H  Has Mass    1.00783
   Atom   11 Element H  Has Mass    1.00783
   Atom   12 Element H  Has Mass    1.00783
   Atom   13 Element O  Has Mass   15.99491
   Atom   14 Element H  Has Mass    1.00783
   Molecular Mass:   111.029360 amu
   Principal axes and moments of inertia in amu*Bohr^2:
                             1           2           3
    Eigenvalues --      695.99443   784.17176  1073.22467
          X              -0.06188     0.99621    -0.06109
          Y               0.71134     0.00109    -0.70284
          Z               0.70011     0.08695     0.70872
   Rotational Symmetry Number is   1
   The Molecule is an Asymmetric Top
   Translational Enthalpy:        0.889 kcal/mol
   Rotational Enthalpy:           0.889 kcal/mol
   Vibrational Enthalpy:         67.608 kcal/mol
   gas constant (RT):             0.592 kcal/mol
   Translational Entropy:        40.030  cal/mol.K
   Rotational Entropy:           27.862  cal/mol.K
   Vibrational Entropy:          15.285  cal/mol.K

   Total Enthalpy:               69.978 kcal/mol
   Total Entropy:                83.176  cal/mol.K
 Total job time:  8626.67s(wall), 101497.31s(cpu)
        *  Thank you very much for using Q-Chem.  Have a nice day.  *
 Q-Chem 5.4, Q-Chem, Inc., Pleasanton, CA (2021)
 Q-Chem 5.4.1 for Intel X86 EM64T Linux

User input:
--------------------------------------------------------------

$rem
JOBTYPE = ts
SCF_GUESS = read
GEOM_OPT_HESSIAN = read
MAX_SCF_CYCLES = 350
GEOM_OPT_DMAX = 60
GEOM_OPT_MAX_CYCLES = 250
METHOD = wB97M-v
BASIS = 6-311++G(2df,2p)
SCF_CONVERGENCE = 7
THRESH = 12
SCF_ALGORITHM = DIIS_GDM
solvent_method = SMD
$end

$molecule
read
$end
--------------------------------------------------------------

   18    -456.5053024107      8.18e-08  Convergence criterion met
 Total energy in the final basis set =     -456.5000048245
   19    -456.5053123761      9.35e-08  Convergence criterion met
 Total energy in the final basis set =     -456.5000086172
   19    -456.5053241266      7.64e-08  Convergence criterion met
 Total energy in the final basis set =     -456.5000115569
   19    -456.5053321135      5.41e-08  Convergence criterion met
 Total energy in the final basis set =     -456.5000130627
   18    -456.5053420892      8.99e-08  Convergence criterion met
 Total energy in the final basis set =     -456.5000161849
   19    -456.5053479974      9.79e-08  Convergence criterion met
 Total energy in the final basis set =     -456.5000157942

             Standard Nuclear Orientation (Angstroms)
    I     Atom           X                Y                Z
 ----------------------------------------------------------------
    1      C       1.4852578028    -0.3677826012    -0.4442991730
    2      O       1.9404829139    -1.2079510295    -1.4843795256
    3      C       0.0690938744     0.1342318223    -0.7265367971
    4      O      -0.8644696628    -0.9077304434    -0.8049627698
    5      O       0.0725886945     0.8382235305    -1.9197368852
    6      O       2.3705587272     0.7060376022    -0.3251156443
    7      H       1.4891703950    -0.8952625560     0.5105522959
    8      H       1.3285012100    -1.9504279673    -1.5658141422
    9      H      -0.2073743679     0.8276091866     0.1389543591
   10      H      -0.9427581896    -1.3259836206     0.0625288767
   11      H      -0.7655400419     1.3080800657    -2.0105723678
   12      H       2.2547608872     1.2786060596    -1.0958986803
   13      O      -0.0594380358     1.9239956717     1.2555433624
   14      H       0.9053177929     1.9879354794     1.1373053912
 ----------------------------------------------------------------

   19    -456.5053408479      9.74e-08  Convergence criterion met
 Total energy in the final basis set =     -456.5000166034
 Final energy is   -456.500016603382
 **  OPTIMIZATION CONVERGED  **

                    Orbital Energies (a.u.)
 --------------------------------------------------------------

 Alpha MOs
 -- Occupied --
-19.3799 -19.3611 -19.3595 -19.3541 -19.3471 -10.4626 -10.4513  -1.2307
 -1.1974  -1.1534  -1.1399  -1.1279  -0.8555  -0.7595  -0.6845  -0.6732
 -0.6429  -0.6339  -0.5784  -0.5715  -0.5345  -0.5197  -0.5025  -0.4835
 -0.4662  -0.4584  -0.4486  -0.4311  -0.4066  -0.3700

 Beta MOs
 -- Occupied --
-19.3604 -19.3590 -19.3583 -19.3542 -19.3468 -10.4589 -10.4511  -1.2287
 -1.1963  -1.1513  -1.1389  -1.0737  -0.8513  -0.7568  -0.6761  -0.6710
 -0.6330  -0.6315  -0.5710  -0.5547  -0.5312  -0.5034  -0.4832  -0.4757
 -0.4531  -0.4322  -0.4225  -0.4141  -0.3827

          Ground-State Mulliken Net Atomic Charges

     Atom                 Charge (a.u.)    Spin (a.u.)
  --------------------------------------------------------
      1 C                    -0.004299      -0.001143
      2 O                    -0.452294       0.008267
      3 C                    -0.224276       0.170744
      4 O                    -0.421961       0.039135
      5 O                    -0.396575       0.022513
      6 O                    -0.382121      -0.000232
      7 H                     0.273968      -0.001429
      8 H                     0.328465      -0.000342
      9 H                     0.373490      -0.019548
     10 H                     0.339568      -0.001837
     11 H                     0.362825       0.000340
     12 H                     0.324625      -0.000300
     13 O                    -0.450100       0.794993
     14 H                     0.328683      -0.011160
  --------------------------------------------------------
  Sum of atomic charges =     0.000000

                    Cartesian Multipole Moments
 -----------------------------------------------------------------
    Charge (ESU x 10^10)
                 0.0000
    Dipole Moment (Debye)
         X      -1.9859      Y      -1.1388      Z       1.0592
       Tot       2.5224
    Quadrupole Moments (Debye-Ang)
        XX     -51.4339     XY       3.1713     YY     -36.8594
        XZ       4.9304     YZ      -6.9107     ZZ     -48.0889

 Total job time:  4567.49s(wall), 57726.48s(cpu)
        *  Thank you very much for using Q-Chem.  Have a nice day.  *
