 Q-Chem 5.4, Q-Chem, Inc., Pleasanton, CA (2021)
 Q-Chem 5.4.1 for Intel X86 EM64T Linux

User input:
--------------------------------------------------------------
$molecule
-1 2
O        -0.5898693698    1.4364167686   -0.2011324283
C        -0.0505459724    0.4558973035    0.6364534286
O        -0.9992020981   -0.4709441896    1.0550590018
C         1.1382211719   -0.2198854210   -0.0797845773
O         2.1150602176    0.5155082449   -0.3422678855
O         1.0091565412   -1.4439638257   -0.3063138284
H        -1.2923185257    1.8935755434    0.2782478755
H        -0.6832252495   -1.3229325128    0.7021992984
H         0.3900654810    0.9778650496    1.5657085859
O         1.5169367837    1.7843143470    2.2297602170
H         2.0821964203    1.6320557921    1.4474164122
$end

$rem
BASIS = def2-TZVPPD
JOB_TYPE = SP
METHOD = wB97M-V
SCF_ALGORITHM = DIIS_GDM
MAX_SCF_CYCLES = 400
SCF_CONVERGENCE = 7
THRESH = 12
Solvent_method = SMD
$end
--------------------------------------------------------------

             Standard Nuclear Orientation (Angstroms)
    I     Atom           X                Y                Z
 ----------------------------------------------------------------
    1      O      -0.5898693698     1.4364167686    -0.2011324283
    2      C      -0.0505459724     0.4558973035     0.6364534286
    3      O      -0.9992020981    -0.4709441896     1.0550590018
    4      C       1.1382211719    -0.2198854210    -0.0797845773
    5      O       2.1150602176     0.5155082449    -0.3422678855
    6      O       1.0091565412    -1.4439638257    -0.3063138284
    7      H      -1.2923185257     1.8935755434     0.2782478755
    8      H      -0.6832252495    -1.3229325128     0.7021992984
    9      H       0.3900654810     0.9778650496     1.5657085859
   10      O       1.5169367837     1.7843143470     2.2297602170
   11      H       2.0821964203     1.6320557921     1.4474164122
 ----------------------------------------------------------------

   23    -454.9081896448      7.09e-08  Convergence criterion met
 Total energy in the final basis set =     -454.9016092891

                    Orbital Energies (a.u.)
 --------------------------------------------------------------

 Alpha MOs
 -- Occupied --
-19.3658 -19.3524 -19.3460 -19.2987 -19.2949 -10.4551 -10.4498  -1.2159
 -1.1729  -1.1435  -1.1170  -1.0910  -0.8172  -0.6903  -0.6501  -0.6220
 -0.5937  -0.5684  -0.5402  -0.5239  -0.5190  -0.4974  -0.4875  -0.4415
 -0.4211  -0.3941  -0.3812  -0.3709  -0.3563

 Beta MOs
 -- Occupied --
-19.3514 -19.3455 -19.3448 -19.2986 -19.2949 -10.4509 -10.4498  -1.2132
 -1.1721  -1.1408  -1.0921  -1.0640  -0.8096  -0.6838  -0.6448  -0.6092
 -0.5877  -0.5494  -0.5377  -0.5195  -0.5155  -0.4892  -0.4246  -0.4139
 -0.4099  -0.3801  -0.3721  -0.3648

          Ground-State Mulliken Net Atomic Charges

     Atom                 Charge (a.u.)    Spin (a.u.)
  --------------------------------------------------------
      1 O                    -0.427639       0.033326
      2 C                     0.654479       0.149920
      3 O                    -0.567132       0.029334
      4 C                     0.668348       0.000472
      5 O                    -0.821592       0.003771
      6 O                    -0.827506       0.007210
      7 H                     0.180661      -0.002250
      8 H                     0.268679       0.005237
      9 H                     0.072027       0.030680
     10 O                    -0.499022       0.773340
     11 H                     0.298699      -0.031040
  --------------------------------------------------------
  Sum of atomic charges =    -1.000000

                    Cartesian Multipole Moments
 -----------------------------------------------------------------
    Charge (ESU x 10^10)
                -4.8032
    Dipole Moment (Debye)
         X      -7.4630      Y       0.4703      Z      -0.1112
       Tot       7.4786
    Quadrupole Moments (Debye-Ang)
        XX     -56.7605     XY      -2.7742     YY     -50.7604
        XZ       1.0740     YZ      -4.0164     ZZ     -54.4053

 Total job time:  505.29s(wall), 2011.30s(cpu)
        *  Thank you very much for using Q-Chem.  Have a nice day.  *
