 Q-Chem 5.4, Q-Chem, Inc., Pleasanton, CA (2021)
 Q-Chem 5.4.1 for Intel X86 EM64T Linux

User input:
--------------------------------------------------------------
$molecule
0 3
O        -3.3016872316    4.4705652735    0.5345536189
O        -4.3059970684    3.9312274265    0.1697464811
$end

$rem
BASIS = def2-TZVPPD
JOB_TYPE = SP
METHOD = wB97M-V
SCF_ALGORITHM = DIIS_GDM
MAX_SCF_CYCLES = 400
SCF_CONVERGENCE = 7
THRESH = 12
Solvent_method = SMD
$end
--------------------------------------------------------------

             Standard Nuclear Orientation (Angstroms)
    I     Atom           X                Y                Z
 ----------------------------------------------------------------
    1      O      -3.3016872316     4.4705652735     0.5345536189
    2      O      -4.3059970684     3.9312274265     0.1697464811
 ----------------------------------------------------------------

   10    -150.3487906124      7.18e-08  Convergence criterion met
 Total energy in the final basis set =     -150.3487906124

                    Orbital Energies (a.u.)
 --------------------------------------------------------------

 Alpha MOs
 -- Occupied --
-19.4863 -19.4862  -1.4379  -0.9561  -0.6746  -0.6746  -0.6626  -0.4064
 -0.4064

 Beta MOs
 -- Occupied --
-19.4562 -19.4558  -1.3818  -0.8693  -0.6172  -0.5687  -0.5687

          Ground-State Mulliken Net Atomic Charges

     Atom                 Charge (a.u.)    Spin (a.u.)
  --------------------------------------------------------
      1 O                     0.000000       1.000000
      2 O                    -0.000000       1.000000
  --------------------------------------------------------
  Sum of atomic charges =     0.000000

                    Cartesian Multipole Moments
 -----------------------------------------------------------------
    Charge (ESU x 10^10)
                 0.0000
    Dipole Moment (Debye)
         X       0.0000      Y       0.0000      Z       0.0000
       Tot       0.0000
    Quadrupole Moments (Debye-Ang)
        XX     -10.5024     XY      -0.1871     YY     -10.2543
        XZ      -0.1265     YZ      -0.0679     ZZ     -10.1998

 Total job time:  6.78s(wall), 24.74s(cpu)
        *  Thank you very much for using Q-Chem.  Have a nice day.  *
