 Q-Chem 5.4, Q-Chem, Inc., Pleasanton, CA (2021)
 Q-Chem 5.4.1 for Intel X86 EM64T Linux

User input:
--------------------------------------------------------------
$molecule
-1 2
C         1.4980164545    0.7660547243   -0.1383624944
O         1.8026323618    1.4121745551    0.8766832452
O         1.9798924524    0.8168866210   -1.2928620119
C         0.3676719600   -0.2762671958    0.0083766160
O        -0.0592124773   -0.7989272362   -1.1237456197
O        -0.4187979559   -0.3089060280    1.0215964248
H         0.0738809553   -1.0384616266    1.7114023966
O         1.5892850633   -1.6572546214    0.7212176276
O         1.0518619496   -1.9085083887    1.8610669549
H         0.5714289363   -0.4987389036   -1.8095437390
$end

$rem
BASIS = def2-QZVP
JOB_TYPE = SP
METHOD = wB97M-V
SCF_ALGORITHM = DIIS_GDM
MAX_SCF_CYCLES = 400
SCF_CONVERGENCE = 7
THRESH = 12
Solvent_method = SMD
$end
--------------------------------------------------------------

             Standard Nuclear Orientation (Angstroms)
    I     Atom           X                Y                Z
 ----------------------------------------------------------------
    1      C       1.4980164545     0.7660547243    -0.1383624944
    2      O       1.8026323618     1.4121745551     0.8766832452
    3      O       1.9798924524     0.8168866210    -1.2928620119
    4      C       0.3676719600    -0.2762671958     0.0083766160
    5      O      -0.0592124773    -0.7989272362    -1.1237456197
    6      O      -0.4187979559    -0.3089060280     1.0215964248
    7      H       0.0738809553    -1.0384616266     1.7114023966
    8      O       1.5892850633    -1.6572546214     0.7212176276
    9      O       1.0518619496    -1.9085083887     1.8610669549
   10      H       0.5714289363    -0.4987389036    -1.8095437390
 ----------------------------------------------------------------

   22    -528.9255134633      4.39e-08  Convergence criterion met
 Total energy in the final basis set =     -528.9183502684

                    Orbital Energies (a.u.)
 --------------------------------------------------------------

 Alpha MOs
 -- Occupied --
-19.4237 -19.4203 -19.3819 -19.3503 -19.2987 -19.2959 -10.5083 -10.4570
 -1.3350  -1.2537  -1.1812  -1.1758  -1.0973  -0.9478  -0.7885  -0.7309
 -0.6958  -0.6201  -0.6081  -0.6030  -0.5984  -0.5475  -0.5419  -0.5251
 -0.5083  -0.4790  -0.4579  -0.3939  -0.3841  -0.3821  -0.3731  -0.3595

 Beta MOs
 -- Occupied --
-19.4080 -19.4056 -19.3820 -19.3504 -19.2987 -19.2958 -10.5086 -10.4570
 -1.3082  -1.2518  -1.1812  -1.1755  -1.0973  -0.9077  -0.7864  -0.7296
 -0.6904  -0.6184  -0.6023  -0.5791  -0.5476  -0.5393  -0.5326  -0.5170
 -0.4989  -0.4732  -0.4562  -0.3854  -0.3813  -0.3734  -0.3493

          Ground-State Mulliken Net Atomic Charges

     Atom                 Charge (a.u.)    Spin (a.u.)
  --------------------------------------------------------
      1 C                     0.251751      -0.001760
      2 O                    -0.560406       0.001214
      3 O                    -0.571015       0.000219
      4 C                     0.371745      -0.017095
      5 O                    -0.332098      -0.005130
      6 O                    -0.447061      -0.002768
      7 H                     0.333820      -0.008429
      8 O                    -0.179781       0.532382
      9 O                    -0.199856       0.500678
     10 H                     0.332901       0.000689
  --------------------------------------------------------
  Sum of atomic charges =    -1.000000

                    Cartesian Multipole Moments
 -----------------------------------------------------------------
    Charge (ESU x 10^10)
                -4.8032
    Dipole Moment (Debye)
         X      -8.3195      Y      -2.9214      Z      -2.3118
       Tot       9.1156
    Quadrupole Moments (Debye-Ang)
        XX     -68.3452     XY      -8.0585     YY     -59.5588
        XZ      -1.3580     YZ       1.2906     ZZ     -52.5852

 Total job time:  1429.30s(wall), 5673.04s(cpu)
        *  Thank you very much for using Q-Chem.  Have a nice day.  *
