 Q-Chem 5.4, Q-Chem, Inc., Pleasanton, CA (2021)
 Q-Chem 5.4.1 for Intel X86 EM64T Linux

User input:
--------------------------------------------------------------
$molecule
-1 1
C         0.5976906250    0.1829920034    0.0003836046
O        -0.2116925879    1.0809780819    0.0002834213
C         2.1394850490    0.4145355110    0.0005056157
O         2.4827968949    1.6120878250    0.0005925006
O         2.8556453186   -0.6050976549    0.0004820653
O         0.2596265223   -1.1065494245    0.0003349708
H        -0.7087105219   -1.1729699418    0.0002458218
$end

$rem
BASIS = 6-31G(d)
JOB_TYPE = SP
METHOD = wB97M-V
SCF_ALGORITHM = DIIS_GDM
MAX_SCF_CYCLES = 400
SCF_CONVERGENCE = 7
THRESH = 12
Solvent_method = SMD
$end
--------------------------------------------------------------

             Standard Nuclear Orientation (Angstroms)
    I     Atom           X                Y                Z
 ----------------------------------------------------------------
    1      C       0.5976906250     0.1829920034     0.0003836046
    2      O      -0.2116925879     1.0809780819     0.0002834213
    3      C       2.1394850490     0.4145355110     0.0005056157
    4      O       2.4827968949     1.6120878250     0.0005925006
    5      O       2.8556453186    -0.6050976549     0.0004820653
    6      O       0.2596265223    -1.1065494245     0.0003349708
    7      H      -0.7087105219    -1.1729699418     0.0002458218
 ----------------------------------------------------------------

   13    -377.7834597798      9.43e-08  Convergence criterion met
 Total energy in the final basis set =     -377.7744352334

                    Orbital Energies (a.u.)
 --------------------------------------------------------------

 Alpha MOs
 -- Occupied --
-19.3923 -19.3427 -19.2914 -19.2913 -10.4808 -10.4473  -1.2343  -1.1540
 -1.1416  -1.0657  -0.7790  -0.6537  -0.5985  -0.5675  -0.5643  -0.5141
 -0.5051  -0.4898  -0.4204  -0.4126  -0.3500  -0.3445  -0.3315

          Ground-State Mulliken Net Atomic Charges

     Atom                 Charge (a.u.)
  ----------------------------------------
      1 C                     0.504077
      2 O                    -0.534092
      3 C                     0.496161
      4 O                    -0.667377
      5 O                    -0.668029
      6 O                    -0.594407
      7 H                     0.463667
  ----------------------------------------
  Sum of atomic charges =    -1.000000

                    Cartesian Multipole Moments
 -----------------------------------------------------------------
    Charge (ESU x 10^10)
                -4.8032
    Dipole Moment (Debye)
         X     -12.8562      Y      -4.4671      Z      -0.0025
       Tot      13.6102
    Quadrupole Moments (Debye-Ang)
        XX     -68.0321     XY      -1.8550     YY     -46.4301
        XZ      -0.0069     YZ      -0.0021     ZZ     -32.1348

 Total job time:  23.01s(wall), 66.06s(cpu)
        *  Thank you very much for using Q-Chem.  Have a nice day.  *
