 Q-Chem 5.4, Q-Chem, Inc., Pleasanton, CA (2021)
 Q-Chem 5.4.1 for Intel X86 EM64T Linux

User input:
--------------------------------------------------------------
$molecule
0 2
O         0.7139837603   -0.0221978848    0.0000000000
O        -0.5886126674    0.1177581209    0.0000000000
H        -0.9637405214   -0.7836068958    0.0000000000
$end

$rem
BASIS = 6-311++G(3df,2p)
JOB_TYPE = SP
METHOD = wB97M-V
SCF_ALGORITHM = DIIS_GDM
MAX_SCF_CYCLES = 400
SCF_CONVERGENCE = 7
THRESH = 12
Solvent_method = SMD
$end
--------------------------------------------------------------

             Standard Nuclear Orientation (Angstroms)
    I     Atom           X                Y                Z
 ----------------------------------------------------------------
    1      O       0.7139837603    -0.0221978848     0.0000000000
    2      O      -0.5886126674     0.1177581209     0.0000000000
    3      H      -0.9637405214    -0.7836068958     0.0000000000
 ----------------------------------------------------------------

   15    -150.9303779682      6.19e-08  Convergence criterion met
 Total energy in the final basis set =     -150.9292699065

                    Orbital Energies (a.u.)
 --------------------------------------------------------------

 Alpha MOs
 -- Occupied --
-19.4564 -19.4216  -1.3390  -0.9974  -0.6805  -0.6134  -0.6013  -0.4153
 -0.4084

 Beta MOs
 -- Occupied --
-19.4468 -19.4020  -1.3120  -0.9566  -0.6634  -0.5825  -0.5299  -0.3932

          Ground-State Mulliken Net Atomic Charges

     Atom                 Charge (a.u.)    Spin (a.u.)
  --------------------------------------------------------
      1 O                    -0.198357       0.706840
      2 O                    -0.141937       0.302656
      3 H                     0.340294      -0.009495
  --------------------------------------------------------
  Sum of atomic charges =    -0.000000

                    Cartesian Multipole Moments
 -----------------------------------------------------------------
    Charge (ESU x 10^10)
                -0.0000
    Dipole Moment (Debye)
         X      -2.2483      Y      -1.9276      Z      -0.0000
       Tot       2.9615
    Quadrupole Moments (Debye-Ang)
        XX     -10.6055     XY       2.0282     YY     -10.4245
        XZ       0.0000     YZ       0.0000     ZZ     -11.2570

 Total job time:  10.74s(wall), 39.71s(cpu)
        *  Thank you very much for using Q-Chem.  Have a nice day.  *
