 Q-Chem 5.4, Q-Chem, Inc., Pleasanton, CA (2021)
 Q-Chem 5.4.1 for Intel X86 EM64T Linux

User input:
--------------------------------------------------------------
$molecule
0 2
O        -0.7265937369    0.9841477964    0.4577690803
C        -0.2402478792   -0.2480819922    0.2787714565
O        -1.0332743381   -1.2873550349    0.0253175921
C         1.1606206866   -0.4586142849    0.3412688524
O         1.9284314593    0.6167230263    0.6653942023
O         1.7012960441   -1.5446342061    0.1197841305
H        -1.6551020347    0.9778739983    0.7336224659
H        -1.9370777822   -1.0038659970   -0.1746886398
H         1.3743443810    1.3906540943    0.8401361600
$end

$rem
BASIS = 6-311++G(2df,2p)
GUI = 2
JOB_TYPE = Frequency
METHOD = wB97M-V
SOLVENT_METHOD = SMD
SCF_ALGORITHM = DIIS_GDM
MAX_SCF_CYCLES = 400
SCF_CONVERGENCE = 7
THRESH = 12
UNRESTRICTED = 1
SYMMETRY_IGNORE = 1
$end
--------------------------------------------------------------

   17    -378.9414058057      6.97e-08  Convergence criterion met
 Total energy in the final basis set =     -378.9331130928
   17    -378.9414070883      5.15e-08  Convergence criterion met
 Total energy in the final basis set =     -378.9331119864
   17    -378.9414023205      5.08e-08  Convergence criterion met
 Total energy in the final basis set =     -378.9331120109
   17    -378.9413990734      5.05e-08  Convergence criterion met
 Total energy in the final basis set =     -378.9331123605
   17    -378.9414111164      5.32e-08  Convergence criterion met
 Total energy in the final basis set =     -378.9331124680
   17    -378.9414048396      5.08e-08  Convergence criterion met
 Total energy in the final basis set =     -378.9331130640
   17    -378.9414065534      5.08e-08  Convergence criterion met
 Total energy in the final basis set =     -378.9331129090
   17    -378.9413965914      5.16e-08  Convergence criterion met
 Total energy in the final basis set =     -378.9331128930
   17    -378.9414061733      5.14e-08  Convergence criterion met
 Total energy in the final basis set =     -378.9331132014
   17    -378.9414056558      5.12e-08  Convergence criterion met
 Total energy in the final basis set =     -378.9331127448
   17    -378.9414052716      5.14e-08  Convergence criterion met
 Total energy in the final basis set =     -378.9331127567
   17    -378.9414058383      5.13e-08  Convergence criterion met
 Total energy in the final basis set =     -378.9331124262
   17    -378.9414045062      5.11e-08  Convergence criterion met
 Total energy in the final basis set =     -378.9331124927
   17    -378.9414060592      5.14e-08  Convergence criterion met
 Total energy in the final basis set =     -378.9331131310
   17    -378.9414054592      5.13e-08  Convergence criterion met
 Total energy in the final basis set =     -378.9331129611

                    Orbital Energies (a.u.)
 --------------------------------------------------------------

 Alpha MOs
 -- Occupied --
-19.3977 -19.3964 -19.3754 -19.3216 -10.4861 -10.4785  -1.2706  -1.2254
 -1.1963  -1.1459  -0.8770  -0.7348  -0.7246  -0.6842  -0.6144  -0.5923
 -0.5693  -0.5431  -0.5213  -0.4964  -0.4879  -0.4422  -0.4077  -0.2784

 Beta MOs
 -- Occupied --
-19.3947 -19.3931 -19.3742 -19.3166 -10.4778 -10.4772  -1.2626  -1.2211
 -1.1892  -1.1387  -0.8586  -0.7304  -0.7185  -0.6779  -0.5904  -0.5843
 -0.5626  -0.5264  -0.5159  -0.4911  -0.4628  -0.4186  -0.4007

          Ground-State Mulliken Net Atomic Charges

     Atom                 Charge (a.u.)    Spin (a.u.)
  --------------------------------------------------------
      1 O                    -0.352289       0.078710
      2 C                     0.367187       0.501406
      3 O                    -0.335371       0.089400
      4 C                     0.189747       0.115028
      5 O                    -0.372357       0.034000
      6 O                    -0.561657       0.178275
      7 H                     0.373216       0.003876
      8 H                     0.365994       0.000755
      9 H                     0.325530      -0.001449
  --------------------------------------------------------
  Sum of atomic charges =     0.000000

                    Cartesian Multipole Moments
 -----------------------------------------------------------------
    Charge (ESU x 10^10)
                 0.0000
    Dipole Moment (Debye)
         X      -9.2716      Y       5.3580      Z       0.9689
       Tot      10.7522
    Quadrupole Moments (Debye-Ang)
        XX     -34.8938     XY       6.8659     YY     -40.9989
        XZ      -2.0902     YZ       2.4114     ZZ     -33.2501

             Standard Nuclear Orientation (Angstroms)
    I     Atom           X                Y                Z
 ----------------------------------------------------------------
    1      O      -0.7265937369     0.9841477964     0.4577690803
    2      C      -0.2402478792    -0.2480819922     0.2787714565
    3      O      -1.0332743381    -1.2873550349     0.0253175921
    4      C       1.1606206866    -0.4586142849     0.3412688524
    5      O       1.9284314593     0.6167230263     0.6653942023
    6      O       1.7012960441    -1.5446342061     0.1197841305
    7      H      -1.6551020347     0.9778739983     0.7336224659
    8      H      -1.9370777822    -1.0038659970    -0.1746886398
    9      H       1.3743443810     1.3906540943     0.8401361600
 ----------------------------------------------------------------

 Frequency:       138.55                 186.98                 237.28
 Force Cnst:      0.1033                 0.0231                 0.0397
 Red. Mass:       9.1374                 1.1235                 1.1962
 IR Intens:        6.741                174.699                331.143
 Frequency:       250.62                 352.18                 436.04
 Force Cnst:      0.2291                 0.4634                 0.3916
 Red. Mass:       6.1907                 6.3416                 3.4958
 IR Intens:       13.409                  7.334                 26.794
 Frequency:       450.65                 563.42                 613.73
 Force Cnst:      0.1534                 1.5132                 1.1248
 Red. Mass:       1.2820                 8.0905                 5.0683
 IR Intens:      163.655                 13.552                  4.357
 Frequency:       685.88                 820.28                1050.94
 Force Cnst:      2.5905                 3.6023                 3.3518
 Red. Mass:       9.3461                 9.0868                 5.1509
 IR Intens:        8.438                 49.700                662.438
 Frequency:      1180.05                1229.30                1290.35
 Force Cnst:      0.9286                 1.1398                 1.8637
 Red. Mass:       1.1318                 1.2802                 1.8998
 IR Intens:      251.254                143.070                680.856
 Frequency:      1368.61                1546.53                1738.61
 Force Cnst:      8.9577                 5.3493                11.8364
 Red. Mass:       8.1169                 3.7960                 6.6461
 IR Intens:      351.261                459.080                267.823
 Frequency:      3756.08                3769.16                3773.06
 Force Cnst:      8.8668                 8.9190                 8.9434
 Red. Mass:       1.0667                 1.0656                 1.0663
 IR Intens:      221.019                164.755                495.791

 STANDARD THERMODYNAMIC QUANTITIES AT   298.15 K  AND     1.00 ATM

   This Molecule has  0 Imaginary Frequencies
   Zero point vibrational energy:       36.366 kcal/mol

   Atom    1 Element O  Has Mass   15.99491
   Atom    2 Element C  Has Mass   12.00000
   Atom    3 Element O  Has Mass   15.99491
   Atom    4 Element C  Has Mass   12.00000
   Atom    5 Element O  Has Mass   15.99491
   Atom    6 Element O  Has Mass   15.99491
   Atom    7 Element H  Has Mass    1.00783
   Atom    8 Element H  Has Mass    1.00783
   Atom    9 Element H  Has Mass    1.00783
   Molecular Mass:    91.003130 amu
   Principal axes and moments of inertia in amu*Bohr^2:
                             1           2           3
    Eigenvalues --      319.63779   504.68424   822.91064
          X               0.99541     0.05721    -0.07666
          Y              -0.07239     0.97441    -0.21280
          Z               0.06252     0.21738     0.97408
   Rotational Symmetry Number is   1
   The Molecule is an Asymmetric Top
   Translational Enthalpy:        0.889 kcal/mol
   Rotational Enthalpy:           0.889 kcal/mol
   Vibrational Enthalpy:         38.717 kcal/mol
   gas constant (RT):             0.592 kcal/mol
   Translational Entropy:        39.437  cal/mol.K
   Rotational Entropy:           26.387  cal/mol.K
   Vibrational Entropy:          13.099  cal/mol.K

   Total Enthalpy:               41.087 kcal/mol
   Total Entropy:                78.923  cal/mol.K
 Total job time:  3405.67s(wall), 26191.70s(cpu)
        *  Thank you very much for using Q-Chem.  Have a nice day.  *
