 Q-Chem 5.4, Q-Chem, Inc., Pleasanton, CA (2021)
 Q-Chem 5.4.1 for Intel X86 EM64T Linux

User input:
--------------------------------------------------------------
$molecule
0 2
O        -0.7332235113    0.9969251586    0.4037026647
C        -0.2420667196   -0.2498071743    0.2684347530
O        -1.0444415015   -1.3010622463    0.0522328532
C         1.1640080621   -0.4633893764    0.3436656418
O         1.9225610435    0.6253864047    0.6604060741
O         1.7047423448   -1.5549629701    0.1429978176
H        -1.6140389091    0.9784463333    0.8250312467
H        -1.9244426437   -0.9937654509   -0.2350921545
H         1.3392986348    1.3890767215    0.8259964036
$end

$rem
BASIS = 6-311++G(2df,2p)
GUI = 2
JOB_TYPE = Optimization
METHOD = wB97M-V
SCF_ALGORITHM = DIIS_GDM
MAX_SCF_CYCLES = 400
GEOM_OPT_MAX_CYCLES = 150
SCF_CONVERGENCE = 7
THRESH = 12
UNRESTRICTED = 1
Solvent_method = SMD
$end
--------------------------------------------------------------

   17    -378.9407556298      6.56e-08  Convergence criterion met
 Total energy in the final basis set =     -378.9326182117
   17    -378.9412718553      5.05e-08  Convergence criterion met
 Total energy in the final basis set =     -378.9330062465
   17    -378.9413471029      5.14e-08  Convergence criterion met
 Total energy in the final basis set =     -378.9330426269
   17    -378.9414031736      4.81e-08  Convergence criterion met
 Total energy in the final basis set =     -378.9330749470
   17    -378.9414124612      5.14e-08  Convergence criterion met
 Total energy in the final basis set =     -378.9330977260
   17    -378.9414072656      5.28e-08  Convergence criterion met
 Total energy in the final basis set =     -378.9331099749
   17    -378.9414066546      5.22e-08  Convergence criterion met
 Total energy in the final basis set =     -378.9331125114

             Standard Nuclear Orientation (Angstroms)
    I     Atom           X                Y                Z
 ----------------------------------------------------------------
    1      O      -0.7265937369     0.9841477964     0.4577690803
    2      C      -0.2402478792    -0.2480819922     0.2787714565
    3      O      -1.0332743381    -1.2873550349     0.0253175921
    4      C       1.1606206866    -0.4586142849     0.3412688524
    5      O       1.9284314593     0.6167230263     0.6653942023
    6      O       1.7012960441    -1.5446342061     0.1197841305
    7      H      -1.6551020347     0.9778739983     0.7336224659
    8      H      -1.9370777822    -1.0038659970    -0.1746886398
    9      H       1.3743443810     1.3906540943     0.8401361600
 ----------------------------------------------------------------

   17    -378.9414058058      5.22e-08  Convergence criterion met
 Total energy in the final basis set =     -378.9331130929
 Final energy is   -378.933113092927
 **  OPTIMIZATION CONVERGED  **

                    Orbital Energies (a.u.)
 --------------------------------------------------------------

 Alpha MOs
 -- Occupied --
-19.3977 -19.3964 -19.3754 -19.3216 -10.4861 -10.4785  -1.2706  -1.2254
 -1.1963  -1.1459  -0.8770  -0.7348  -0.7246  -0.6842  -0.6144  -0.5922
 -0.5693  -0.5431  -0.5213  -0.4964  -0.4879  -0.4422  -0.4077  -0.2784

 Beta MOs
 -- Occupied --
-19.3947 -19.3931 -19.3742 -19.3166 -10.4778 -10.4772  -1.2626  -1.2211
 -1.1892  -1.1387  -0.8586  -0.7304  -0.7185  -0.6779  -0.5904  -0.5843
 -0.5626  -0.5264  -0.5158  -0.4911  -0.4628  -0.4186  -0.4007

          Ground-State Mulliken Net Atomic Charges

     Atom                 Charge (a.u.)    Spin (a.u.)
  --------------------------------------------------------
      1 O                    -0.352298       0.078709
      2 C                     0.367157       0.501409
      3 O                    -0.335370       0.089400
      4 C                     0.189820       0.115027
      5 O                    -0.372463       0.034003
      6 O                    -0.561679       0.178271
      7 H                     0.373210       0.003876
      8 H                     0.365994       0.000754
      9 H                     0.325629      -0.001449
  --------------------------------------------------------
  Sum of atomic charges =     0.000000

                    Cartesian Multipole Moments
 -----------------------------------------------------------------
    Charge (ESU x 10^10)
                 0.0000
    Dipole Moment (Debye)
         X      -9.2716      Y       5.3580      Z       0.9710
       Tot      10.7524
    Quadrupole Moments (Debye-Ang)
        XX     -34.8944     XY       6.8660     YY     -40.9993
        XZ      -2.0875     YZ       2.4149     ZZ     -33.2465

 Total job time:  488.16s(wall), 3782.12s(cpu)
        *  Thank you very much for using Q-Chem.  Have a nice day.  *
