 Q-Chem 5.4, Q-Chem, Inc., Pleasanton, CA (2021)
 Q-Chem 5.4.1 for Intel X86 EM64T Linux

User input:
--------------------------------------------------------------
$molecule
-1 2
C         0.0335825890    0.2156391192    0.2364698461
O         1.2001413651    0.0826017418    0.8943481755
H        -1.1277621868    1.3766541534   -0.6298194523
C        -0.8393693190   -0.8929137460   -0.0274891381
O        -0.5062190370   -2.0526716429    0.3744233366
O        -1.9104150558   -0.6008046154   -0.6669935653
O        -0.2722929998    1.4647120681   -0.1745756269
H         1.6345905442    0.9437645218    0.9577898244
$end

$rem
BASIS = 6-311++G**
JOB_TYPE = SP
METHOD = wB97M-V
SCF_ALGORITHM = DIIS_GDM
MAX_SCF_CYCLES = 400
SCF_CONVERGENCE = 7
THRESH = 12
Solvent_method = SMD
$end
--------------------------------------------------------------

             Standard Nuclear Orientation (Angstroms)
    I     Atom           X                Y                Z
 ----------------------------------------------------------------
    1      C       0.0335825890     0.2156391192     0.2364698461
    2      O       1.2001413651     0.0826017418     0.8943481755
    3      H      -1.1277621868     1.3766541534    -0.6298194523
    4      C      -0.8393693190    -0.8929137460    -0.0274891381
    5      O      -0.5062190370    -2.0526716429     0.3744233366
    6      O      -1.9104150558    -0.6008046154    -0.6669935653
    7      O      -0.2722929998     1.4647120681    -0.1745756269
    8      H       1.6345905442     0.9437645218     0.9577898244
 ----------------------------------------------------------------

   17    -378.4700667274      4.14e-08  Convergence criterion met
 Total energy in the final basis set =     -378.4621153444

                    Orbital Energies (a.u.)
 --------------------------------------------------------------

 Alpha MOs
 -- Occupied --
-19.3763 -19.3733 -19.2809 -19.2795 -10.4489 -10.4391  -1.2441  -1.1751
 -1.1564  -1.0700  -0.8238  -0.7087  -0.6709  -0.5865  -0.5824  -0.5318
 -0.5200  -0.5126  -0.5006  -0.4662  -0.3786  -0.3778  -0.3567  -0.2442

 Beta MOs
 -- Occupied --
-19.3731 -19.3702 -19.2783 -19.2769 -10.4391 -10.4385  -1.2353  -1.1680
 -1.1516  -1.0647  -0.8046  -0.7021  -0.6637  -0.5817  -0.5527  -0.5275
 -0.5155  -0.5083  -0.4832  -0.4400  -0.3726  -0.3565  -0.3533

          Ground-State Mulliken Net Atomic Charges

     Atom                 Charge (a.u.)    Spin (a.u.)
  --------------------------------------------------------
      1 C                    -0.074252       0.613204
      2 O                    -0.297418       0.077724
      3 H                     0.302303      -0.002910
      4 C                     0.328459       0.051938
      5 O                    -0.675491       0.093290
      6 O                    -0.679410       0.088997
      7 O                    -0.263084       0.080212
      8 H                     0.358893      -0.002455
  --------------------------------------------------------
  Sum of atomic charges =    -1.000000

                    Cartesian Multipole Moments
 -----------------------------------------------------------------
    Charge (ESU x 10^10)
                -4.8032
    Dipole Moment (Debye)
         X       6.3287      Y       9.7291      Z       0.3149
       Tot      11.6107
    Quadrupole Moments (Debye-Ang)
        XX     -46.2121     XY      -5.5383     YY     -53.2456
        XZ      -2.5908     YZ       2.6498     ZZ     -38.3575

 Total job time:  36.37s(wall), 140.74s(cpu)
        *  Thank you very much for using Q-Chem.  Have a nice day.  *
