 Q-Chem 5.4, Q-Chem, Inc., Pleasanton, CA (2021)
 Q-Chem 5.4.1 for Intel X86 EM64T Linux

User input:
--------------------------------------------------------------
$molecule
-1 2
O        -0.5898693698    1.4364167686   -0.2011324283
C        -0.0505459724    0.4558973035    0.6364534286
O        -0.9992020981   -0.4709441896    1.0550590018
C         1.1382211719   -0.2198854210   -0.0797845773
O         2.1150602176    0.5155082449   -0.3422678855
O         1.0091565412   -1.4439638257   -0.3063138284
H        -1.2923185257    1.8935755434    0.2782478755
H        -0.6832252495   -1.3229325128    0.7021992984
H         0.3900654810    0.9778650496    1.5657085859
O         1.5169367837    1.7843143470    2.2297602170
H         2.0821964203    1.6320557921    1.4474164122
$end

$rem
BASIS = 6-311++G(3df,2p)
JOB_TYPE = SP
METHOD = wB97M-V
SCF_ALGORITHM = DIIS_GDM
MAX_SCF_CYCLES = 400
SCF_CONVERGENCE = 7
THRESH = 12
Solvent_method = SMD
$end
--------------------------------------------------------------

             Standard Nuclear Orientation (Angstroms)
    I     Atom           X                Y                Z
 ----------------------------------------------------------------
    1      O      -0.5898693698     1.4364167686    -0.2011324283
    2      C      -0.0505459724     0.4558973035     0.6364534286
    3      O      -0.9992020981    -0.4709441896     1.0550590018
    4      C       1.1382211719    -0.2198854210    -0.0797845773
    5      O       2.1150602176     0.5155082449    -0.3422678855
    6      O       1.0091565412    -1.4439638257    -0.3063138284
    7      H      -1.2923185257     1.8935755434     0.2782478755
    8      H      -0.6832252495    -1.3229325128     0.7021992984
    9      H       0.3900654810     0.9778650496     1.5657085859
   10      O       1.5169367837     1.7843143470     2.2297602170
   11      H       2.0821964203     1.6320557921     1.4474164122
 ----------------------------------------------------------------

   23    -454.8814085716      7.43e-08  Convergence criterion met
 Total energy in the final basis set =     -454.8748282159

                    Orbital Energies (a.u.)
 --------------------------------------------------------------

 Alpha MOs
 -- Occupied --
-19.3676 -19.3543 -19.3481 -19.3007 -19.2969 -10.4559 -10.4506  -1.2178
 -1.1745  -1.1455  -1.1190  -1.0927  -0.8189  -0.6919  -0.6515  -0.6235
 -0.5951  -0.5700  -0.5416  -0.5254  -0.5203  -0.4988  -0.4890  -0.4430
 -0.4225  -0.3955  -0.3825  -0.3723  -0.3577

 Beta MOs
 -- Occupied --
-19.3533 -19.3474 -19.3469 -19.3005 -19.2968 -10.4517 -10.4505  -1.2150
 -1.1737  -1.1428  -1.0938  -1.0661  -0.8113  -0.6853  -0.6463  -0.6106
 -0.5891  -0.5510  -0.5391  -0.5209  -0.5169  -0.4908  -0.4260  -0.4153
 -0.4114  -0.3815  -0.3735  -0.3662

          Ground-State Mulliken Net Atomic Charges

     Atom                 Charge (a.u.)    Spin (a.u.)
  --------------------------------------------------------
      1 O                    -0.666822       0.029135
      2 C                     0.359977       0.191069
      3 O                    -0.719812       0.028883
      4 C                     0.840716      -0.002593
      5 O                    -0.836754       0.003929
      6 O                    -0.827798       0.006870
      7 H                     0.319013      -0.000162
      8 H                     0.348945       0.005616
      9 H                     0.385819      -0.013478
     10 O                    -0.549691       0.759605
     11 H                     0.346408      -0.008873
  --------------------------------------------------------
  Sum of atomic charges =    -1.000000

                    Cartesian Multipole Moments
 -----------------------------------------------------------------
    Charge (ESU x 10^10)
                -4.8032
    Dipole Moment (Debye)
         X      -7.4730      Y       0.4701      Z      -0.1070
       Tot       7.4886
    Quadrupole Moments (Debye-Ang)
        XX     -56.8503     XY      -2.8066     YY     -50.8530
        XZ       1.0382     YZ      -3.9985     ZZ     -54.4604

 Total job time:  282.42s(wall), 1122.13s(cpu)
        *  Thank you very much for using Q-Chem.  Have a nice day.  *
