 Q-Chem 5.4, Q-Chem, Inc., Pleasanton, CA (2021)
 Q-Chem 5.4.1 for Intel X86 EM64T Linux

User input:
--------------------------------------------------------------
$molecule
-1 2
C         0.2893629763    0.0315406487    0.5566337965
O         0.6541680611   -1.1565349345    0.4174602413
C        -1.2484564108    0.2451230646    0.4406601187
O        -1.9097781564   -0.9131982675    0.1604466214
O        -1.5417753257    1.2702625386   -0.4185445904
O         0.9759381516    1.0444137214    0.7745928551
O        -1.7384232270    0.7473130169    1.7662032033
O        -1.5108119417   -0.1144755690    2.7119986494
H        -1.2217318192   -1.6053856353    0.1817768981
H        -2.4856635083    1.2394733162   -0.6302879932
$end

$rem
BASIS = 6-311++G**
JOB_TYPE = SP
METHOD = wB97M-V
SCF_ALGORITHM = DIIS_GDM
MAX_SCF_CYCLES = 400
SCF_CONVERGENCE = 7
THRESH = 12
Solvent_method = SMD
$end
--------------------------------------------------------------

             Standard Nuclear Orientation (Angstroms)
    I     Atom           X                Y                Z
 ----------------------------------------------------------------
    1      C       0.2893629763     0.0315406487     0.5566337965
    2      O       0.6541680611    -1.1565349345     0.4174602413
    3      C      -1.2484564108     0.2451230646     0.4406601187
    4      O      -1.9097781564    -0.9131982675     0.1604466214
    5      O      -1.5417753257     1.2702625386    -0.4185445904
    6      O       0.9759381516     1.0444137214     0.7745928551
    7      O      -1.7384232270     0.7473130169     1.7662032033
    8      O      -1.5108119417    -0.1144755690     2.7119986494
    9      H      -1.2217318192    -1.6053856353     0.1817768981
   10      H      -2.4856635083     1.2394733162    -0.6302879932
 ----------------------------------------------------------------

   21    -528.8534489885      5.72e-08  Convergence criterion met
 Total energy in the final basis set =     -528.8471311030

                    Orbital Energies (a.u.)
 --------------------------------------------------------------

 Alpha MOs
 -- Occupied --
-19.4601 -19.4206 -19.3682 -19.3625 -19.3062 -19.3012 -10.5168 -10.4623
 -1.3557  -1.2422  -1.1876  -1.1695  -1.1030  -0.9977  -0.8139  -0.7220
 -0.6799  -0.6703  -0.6151  -0.6104  -0.5913  -0.5496  -0.5305  -0.5283
 -0.5128  -0.4788  -0.4373  -0.4180  -0.4033  -0.3862  -0.3772  -0.3693

 Beta MOs
 -- Occupied --
-19.4499 -19.4016 -19.3683 -19.3624 -19.3061 -19.3012 -10.5172 -10.4622
 -1.3313  -1.2388  -1.1875  -1.1693  -1.1028  -0.9631  -0.8074  -0.7161
 -0.6763  -0.6598  -0.6061  -0.5812  -0.5543  -0.5449  -0.5281  -0.5214
 -0.5075  -0.4726  -0.4342  -0.3978  -0.3862  -0.3770  -0.3678

          Ground-State Mulliken Net Atomic Charges

     Atom                 Charge (a.u.)    Spin (a.u.)
  --------------------------------------------------------
      1 C                     0.445130       0.016413
      2 O                    -0.531749       0.003297
      3 C                    -0.328595      -0.010123
      4 O                    -0.250361      -0.003425
      5 O                    -0.281068      -0.000308
      6 O                    -0.545960      -0.001500
      7 O                     0.032027       0.313057
      8 O                    -0.198317       0.683242
      9 H                     0.309993       0.000503
     10 H                     0.348900      -0.001157
  --------------------------------------------------------
  Sum of atomic charges =    -1.000000

                    Cartesian Multipole Moments
 -----------------------------------------------------------------
    Charge (ESU x 10^10)
                -4.8032
    Dipole Moment (Debye)
         X      -3.6304      Y      -1.0803      Z      -5.8195
       Tot       6.9436
    Quadrupole Moments (Debye-Ang)
        XX     -51.9336     XY      -2.9875     YY     -55.0313
        XZ       4.0277     YZ      -1.9119     ZZ     -58.1017

 Total job time:  91.01s(wall), 294.59s(cpu)
        *  Thank you very much for using Q-Chem.  Have a nice day.  *
