 Q-Chem 5.4, Q-Chem, Inc., Pleasanton, CA (2021)
 Q-Chem 5.4.1 for Intel X86 EM64T Linux

User input:
--------------------------------------------------------------
$molecule
0 2
C         0.5695364666    0.0119301795    0.6700025330
O         1.4789047047   -0.2444354264    1.4529369886
H        -1.5874791836   -0.0042416406   -0.8607253565
C        -0.5883875990   -0.8391455004    0.5767346309
O        -0.5918967654   -1.9098741433    1.3586140692
O        -1.6065446707   -0.7618225066   -0.2626693904
O         0.6742482200    1.1189624247   -0.0988121464
H        -0.1018849591    1.3272414999   -0.6326109051
O        -1.5183944077    0.8592388770    2.0550452789
O        -2.5615200239    1.1545408207    1.5113733859
H        -1.4004993818   -2.4225410845    1.2079938120
$end

$rem
BASIS = 6-311++G(3df,2p)
JOB_TYPE = SP
METHOD = wB97M-V
SCF_ALGORITHM = DIIS_GDM
MAX_SCF_CYCLES = 400
SCF_CONVERGENCE = 7
THRESH = 12
Solvent_method = SMD
$end
--------------------------------------------------------------

             Standard Nuclear Orientation (Angstroms)
    I     Atom           X                Y                Z
 ----------------------------------------------------------------
    1      C       0.5695364666     0.0119301795     0.6700025330
    2      O       1.4789047047    -0.2444354264     1.4529369886
    3      H      -1.5874791836    -0.0042416406    -0.8607253565
    4      C      -0.5883875990    -0.8391455004     0.5767346309
    5      O      -0.5918967654    -1.9098741433     1.3586140692
    6      O      -1.6065446707    -0.7618225066    -0.2626693904
    7      O       0.6742482200     1.1189624247    -0.0988121464
    8      H      -0.1018849591     1.3272414999    -0.6326109051
    9      O      -1.5183944077     0.8592388770     2.0550452789
   10      O      -2.5615200239     1.1545408207     1.5113733859
   11      H      -1.4004993818    -2.4225410845     1.2079938120
 ----------------------------------------------------------------

   29    -529.2833145612      4.55e-08  Convergence criterion met
 Total energy in the final basis set =     -529.2761480179

                    Orbital Energies (a.u.)
 --------------------------------------------------------------

 Alpha MOs
 -- Occupied --
-19.4756 -19.4647 -19.4048 -19.3940 -19.3839 -19.3231 -10.4942 -10.4908
 -1.4120  -1.2739  -1.2321  -1.1965  -1.1474  -0.9494  -0.8539  -0.7558
 -0.7423  -0.6832  -0.6651  -0.6575  -0.6481  -0.5843  -0.5808  -0.5506
 -0.5351  -0.5337  -0.5078  -0.4666  -0.4270  -0.4068  -0.3981  -0.3918

 Beta MOs
 -- Occupied --
-19.4475 -19.4374 -19.4071 -19.3967 -19.3846 -19.3272 -10.5011 -10.4917
 -1.3605  -1.2803  -1.2354  -1.2021  -1.1531  -0.8808  -0.8600  -0.7606
 -0.7447  -0.6865  -0.6385  -0.5996  -0.5894  -0.5643  -0.5539  -0.5536
 -0.5390  -0.5373  -0.5111  -0.4847  -0.4455  -0.4112  -0.2719

          Ground-State Mulliken Net Atomic Charges

     Atom                 Charge (a.u.)    Spin (a.u.)
  --------------------------------------------------------
      1 C                     1.043691      -0.104348
      2 O                    -0.790605      -0.143146
      3 H                     0.331496       0.001502
      4 C                     0.617870      -0.429707
      5 O                    -0.601327      -0.071300
      6 O                    -0.568451      -0.061538
      7 O                    -0.604039      -0.021768
      8 H                     0.329114       0.000812
      9 O                     0.010424       0.921204
     10 O                    -0.114613       0.906093
     11 H                     0.346440       0.002196
  --------------------------------------------------------
  Sum of atomic charges =     0.000000

                    Cartesian Multipole Moments
 -----------------------------------------------------------------
    Charge (ESU x 10^10)
                 0.0000
    Dipole Moment (Debye)
         X      -6.4658      Y      -0.6620      Z      -5.7810
       Tot       8.6986
    Quadrupole Moments (Debye-Ang)
        XX     -50.9387     XY       3.6175     YY     -40.4214
        XZ      -3.6768     YZ      -3.3064     ZZ     -50.3492

 Total job time:  385.55s(wall), 1525.09s(cpu)
        *  Thank you very much for using Q-Chem.  Have a nice day.  *
