 Q-Chem 5.4, Q-Chem, Inc., Pleasanton, CA (2021)
 Q-Chem 5.4.1 for Intel X86 EM64T Linux

User input:
--------------------------------------------------------------
$molecule
-1 1
C        -0.9037440051    1.7901608924   -0.1570074679
O        -0.7708866412    1.6705390708    1.0804676203
O        -0.9102248658    3.0865070037   -0.6633885253
H        -0.8042113805    3.6847683268    0.0862451204
O        -1.0325666075    0.8993703064   -1.0196253475
$end

$rem
BASIS = 6-311++G(2df,2p)
GUI = 2
JOB_TYPE = Frequency
METHOD = wB97M-V
SOLVENT_METHOD = SMD
SCF_ALGORITHM = DIIS_GDM
MAX_SCF_CYCLES = 400
SCF_CONVERGENCE = 7
THRESH = 12
$end
--------------------------------------------------------------

   13    -264.6068482172      2.12e-08  Convergence criterion met
 Total energy in the final basis set =     -264.6002681854
   13    -264.6068477179      7.06e-08  Convergence criterion met
 Total energy in the final basis set =     -264.6002677411
   13    -264.6068477919      7.03e-08  Convergence criterion met
 Total energy in the final basis set =     -264.6002677175
   13    -264.6068523374      7.17e-08  Convergence criterion met
 Total energy in the final basis set =     -264.6002671892
   13    -264.6068421612      6.87e-08  Convergence criterion met
 Total energy in the final basis set =     -264.6002671289
   13    -264.6068445799      7.18e-08  Convergence criterion met
 Total energy in the final basis set =     -264.6002667865
   13    -264.6068489791      6.92e-08  Convergence criterion met
 Total energy in the final basis set =     -264.6002667551
   13    -264.6068476759      7.09e-08  Convergence criterion met
 Total energy in the final basis set =     -264.6002676121
   13    -264.6068475468      7.04e-08  Convergence criterion met
 Total energy in the final basis set =     -264.6002675977
   13    -264.6068486883      7.04e-08  Convergence criterion met
 Total energy in the final basis set =     -264.6002682924
   13    -264.6068475954      7.06e-08  Convergence criterion met
 Total energy in the final basis set =     -264.6002679310
   13    -264.6068506707      6.98e-08  Convergence criterion met
 Total energy in the final basis set =     -264.6002674593
   13    -264.6068443913      7.15e-08  Convergence criterion met
 Total energy in the final basis set =     -264.6002675621
   13    -264.6068497980      6.96e-08  Convergence criterion met
 Total energy in the final basis set =     -264.6002675566
   13    -264.6068453544      7.13e-08  Convergence criterion met
 Total energy in the final basis set =     -264.6002675541

                    Orbital Energies (a.u.)
 --------------------------------------------------------------

 Alpha MOs
 -- Occupied --
-19.3480 -19.2870 -19.2858 -10.4835  -1.2204  -1.1174  -1.0910  -0.6964
 -0.5910  -0.5638  -0.5583  -0.5025  -0.4188  -0.3984  -0.3775  -0.3590

          Ground-State Mulliken Net Atomic Charges

     Atom                 Charge (a.u.)
  ----------------------------------------
      1 C                     0.531561
      2 O                    -0.706112
      3 O                    -0.468239
      4 H                     0.340673
      5 O                    -0.697883
  ----------------------------------------
  Sum of atomic charges =    -1.000000

                    Cartesian Multipole Moments
 -----------------------------------------------------------------
    Charge (ESU x 10^10)
                -4.8032
    Dipole Moment (Debye)
         X       4.5624      Y      -4.6965      Z       1.4390
       Tot       6.7039
    Quadrupole Moments (Debye-Ang)
        XX     -28.6622     XY       4.7048     YY     -27.1307
        XZ      -2.4370     YZ       3.0307     ZZ     -34.8691

             Standard Nuclear Orientation (Angstroms)
    I     Atom           X                Y                Z
 ----------------------------------------------------------------
    1      C      -0.9037440051     1.7901608924    -0.1570074679
    2      O      -0.7708866412     1.6705390708     1.0804676203
    3      O      -0.9102248658     3.0865070037    -0.6633885253
    4      H      -0.8042113805     3.6847683268     0.0862451204
    5      O      -1.0325666075     0.8993703064    -1.0196253475
 ----------------------------------------------------------------

 Frequency:       488.46                 570.90                 661.00
 Force Cnst:      0.1557                 0.9371                 3.3805
 Red. Mass:       1.1074                 4.8800                13.1318
 IR Intens:      191.126                 29.148                 23.199
 Frequency:       824.91                 993.03                1209.49
 Force Cnst:      5.0126                 7.4618                 1.1426
 Red. Mass:      12.5026                12.8430                 1.3257
 IR Intens:       52.793                241.233                291.058
 Frequency:      1329.09                1617.22                3814.29
 Force Cnst:     12.7421                11.7723                 9.1341
 Red. Mass:      12.2429                 7.6397                 1.0656
 IR Intens:      704.338               1555.497                137.796

 STANDARD THERMODYNAMIC QUANTITIES AT   298.15 K  AND     1.00 ATM

   This Molecule has  0 Imaginary Frequencies
   Zero point vibrational energy:       16.452 kcal/mol

   Atom    1 Element C  Has Mass   12.00000
   Atom    2 Element O  Has Mass   15.99491
   Atom    3 Element O  Has Mass   15.99491
   Atom    4 Element H  Has Mass    1.00783
   Atom    5 Element O  Has Mass   15.99491
   Molecular Mass:    60.992560 amu
   Principal axes and moments of inertia in amu*Bohr^2:
                             1           2           3
    Eigenvalues --      146.26935   152.94191   299.21125
          X               0.05279     0.10353     0.99322
          Y               0.98904    -0.14279    -0.03768
          Z               0.13792     0.98432    -0.10993
   Rotational Symmetry Number is   1
   The Molecule is an Asymmetric Top
   Translational Enthalpy:        0.889 kcal/mol
   Rotational Enthalpy:           0.889 kcal/mol
   Vibrational Enthalpy:         16.877 kcal/mol
   gas constant (RT):             0.592 kcal/mol
   Translational Entropy:        38.244  cal/mol.K
   Rotational Entropy:           23.419  cal/mol.K
   Vibrational Entropy:           1.901  cal/mol.K

   Total Enthalpy:               19.247 kcal/mol
   Total Entropy:                63.564  cal/mol.K
 Total job time:  443.94s(wall), 3415.35s(cpu)
        *  Thank you very much for using Q-Chem.  Have a nice day.  *
