 Q-Chem 5.4, Q-Chem, Inc., Pleasanton, CA (2021)
 Q-Chem 5.4.1 for Intel X86 EM64T Linux

User input:
--------------------------------------------------------------
$molecule
-1 1
C        -0.9040902026    1.7876774490   -0.1580616535
O        -0.7701436033    1.6819405222    1.0842681836
O        -0.9116527841    3.0913875556   -0.6722564716
H        -0.8028473661    3.6746694999    0.0969279706
O        -1.0328995440    0.8956705734   -1.0241866291
$end

$rem
BASIS = 6-311++G(2df,2p)
GUI = 2
JOB_TYPE = Optimization
METHOD = wB97M-V
SCF_ALGORITHM = DIIS_GDM
MAX_SCF_CYCLES = 400
GEOM_OPT_MAX_CYCLES = 150
SCF_CONVERGENCE = 7
THRESH = 12
UNRESTRICTED = 1
Solvent_method = SMD
$end
--------------------------------------------------------------

   13    -264.6065212167      6.26e-08  Convergence criterion met
 Total energy in the final basis set =     -264.6000596363
   13    -264.6068128133      7.11e-08  Convergence criterion met
 Total energy in the final basis set =     -264.6002599724
   13    -264.6068186831      7.06e-08  Convergence criterion met
 Total energy in the final basis set =     -264.6002427695
   13    -264.6068550787      7.32e-08  Convergence criterion met
 Total energy in the final basis set =     -264.6002151990
   13    -264.6068319902      6.95e-08  Convergence criterion met
 Total energy in the final basis set =     -264.6002646484
   13    -264.6068483165      7.06e-08  Convergence criterion met
 Total energy in the final basis set =     -264.6002678590

             Standard Nuclear Orientation (Angstroms)
    I     Atom           X                Y                Z
 ----------------------------------------------------------------
    1      C      -0.9037440051     1.7901608924    -0.1570074679
    2      O      -0.7708866412     1.6705390708     1.0804676203
    3      O      -0.9102248658     3.0865070037    -0.6633885253
    4      H      -0.8042113805     3.6847683268     0.0862451204
    5      O      -1.0325666075     0.8993703064    -1.0196253475
 ----------------------------------------------------------------

   13    -264.6068482170      7.06e-08  Convergence criterion met
 Total energy in the final basis set =     -264.6002681852
 Final energy is   -264.600268185225
 **  OPTIMIZATION CONVERGED  **

                    Orbital Energies (a.u.)
 --------------------------------------------------------------

 Alpha MOs
 -- Occupied --
-19.3479 -19.2868 -19.2858 -10.4833  -1.2204  -1.1176  -1.0910  -0.6964
 -0.5910  -0.5638  -0.5584  -0.5026  -0.4188  -0.3985  -0.3775  -0.3589

 Beta MOs
 -- Occupied --
-19.3479 -19.2868 -19.2858 -10.4833  -1.2204  -1.1176  -1.0910  -0.6964
 -0.5910  -0.5638  -0.5584  -0.5026  -0.4188  -0.3985  -0.3775  -0.3589

          Ground-State Mulliken Net Atomic Charges

     Atom                 Charge (a.u.)    Spin (a.u.)
  --------------------------------------------------------
      1 C                     0.531761       0.000000
      2 O                    -0.706631       0.000000
      3 O                    -0.468433       0.000000
      4 H                     0.340684       0.000000
      5 O                    -0.697381       0.000000
  --------------------------------------------------------
  Sum of atomic charges =    -1.000000

                    Cartesian Multipole Moments
 -----------------------------------------------------------------
    Charge (ESU x 10^10)
                -4.8032
    Dipole Moment (Debye)
         X       4.5617      Y      -4.6994      Z       1.4308
       Tot       6.7038
    Quadrupole Moments (Debye-Ang)
        XX     -28.6595     XY       4.7063     YY     -27.1389
        XZ      -2.4296     YZ       3.0213     ZZ     -34.8633

 Total job time:  109.03s(wall), 839.10s(cpu)
        *  Thank you very much for using Q-Chem.  Have a nice day.  *
