 Q-Chem 5.4, Q-Chem, Inc., Pleasanton, CA (2021)
 Q-Chem 5.4.1 for Intel X86 EM64T Linux

User input:
--------------------------------------------------------------
$molecule
0 2
O         0.7139837603   -0.0221978848    0.0000000000
O        -0.5886126674    0.1177581209    0.0000000000
H        -0.9637405214   -0.7836068958    0.0000000000
$end

$rem
BASIS = 6-311++G**
JOB_TYPE = SP
METHOD = wB97M-V
SCF_ALGORITHM = DIIS_GDM
MAX_SCF_CYCLES = 400
SCF_CONVERGENCE = 7
THRESH = 12
Solvent_method = SMD
$end
--------------------------------------------------------------

             Standard Nuclear Orientation (Angstroms)
    I     Atom           X                Y                Z
 ----------------------------------------------------------------
    1      O       0.7139837603    -0.0221978848     0.0000000000
    2      O      -0.5886126674     0.1177581209     0.0000000000
    3      H      -0.9637405214    -0.7836068958     0.0000000000
 ----------------------------------------------------------------

   15    -150.9215141454      5.86e-08  Convergence criterion met
 Total energy in the final basis set =     -150.9204060837

                    Orbital Energies (a.u.)
 --------------------------------------------------------------

 Alpha MOs
 -- Occupied --
-19.4569 -19.4227  -1.3447  -0.9992  -0.6825  -0.6143  -0.6023  -0.4170
 -0.4100

 Beta MOs
 -- Occupied --
-19.4474 -19.4030  -1.3174  -0.9587  -0.6649  -0.5831  -0.5303  -0.3944

          Ground-State Mulliken Net Atomic Charges

     Atom                 Charge (a.u.)    Spin (a.u.)
  --------------------------------------------------------
      1 O                    -0.208912       0.709166
      2 O                    -0.138447       0.300410
      3 H                     0.347358      -0.009577
  --------------------------------------------------------
  Sum of atomic charges =    -0.000000

                    Cartesian Multipole Moments
 -----------------------------------------------------------------
    Charge (ESU x 10^10)
                 0.0000
    Dipole Moment (Debye)
         X      -2.2856      Y      -2.0521      Z       0.0000
       Tot       3.0717
    Quadrupole Moments (Debye-Ang)
        XX     -10.9052     XY       2.1243     YY     -10.4691
        XZ      -0.0000     YZ      -0.0000     ZZ     -11.2148

 Total job time:  7.82s(wall), 28.29s(cpu)
        *  Thank you very much for using Q-Chem.  Have a nice day.  *
