 Q-Chem 5.4, Q-Chem, Inc., Pleasanton, CA (2021)
 Q-Chem 5.4.1 for Intel X86 EM64T Linux

User input:
--------------------------------------------------------------
$molecule
0 1
O        -0.6678554955    1.1020238419    0.2612852811
C        -0.3656352537   -0.2442880346    0.5330946241
O        -1.0087321239   -1.1308296264   -0.3381898993
C         1.1413976584   -0.4349469172    0.3500214906
O         1.8712152688    0.6730078684    0.4158507821
O         1.6501434675   -1.5191886229    0.2019956850
H        -1.3958858049    1.3819609322    0.8267715306
H        -1.8915177107   -1.3065397044    0.0066128236
H         1.2716528173    1.4364649447    0.4903475041
H        -0.6024757234   -0.4811881816    1.5723379780
$end

$rem
BASIS = def2-TZVPPD
JOB_TYPE = SP
METHOD = wB97M-V
SCF_ALGORITHM = DIIS_GDM
MAX_SCF_CYCLES = 400
SCF_CONVERGENCE = 7
THRESH = 12
Solvent_method = SMD
$end
--------------------------------------------------------------

             Standard Nuclear Orientation (Angstroms)
    I     Atom           X                Y                Z
 ----------------------------------------------------------------
    1      O      -0.6678554955     1.1020238419     0.2612852811
    2      C      -0.3656352537    -0.2442880346     0.5330946241
    3      O      -1.0087321239    -1.1308296264    -0.3381898993
    4      C       1.1413976584    -0.4349469172     0.3500214906
    5      O       1.8712152688     0.6730078684     0.4158507821
    6      O       1.6501434675    -1.5191886229     0.2019956850
    7      H      -1.3958858049     1.3819609322     0.8267715306
    8      H      -1.8915177107    -1.3065397044     0.0066128236
    9      H       1.2716528173     1.4364649447     0.4903475041
   10      H      -0.6024757234    -0.4811881816     1.5723379780
 ----------------------------------------------------------------

   14    -379.6062458023      8.61e-08  Convergence criterion met
 Total energy in the final basis set =     -379.5993228387

                    Orbital Energies (a.u.)
 --------------------------------------------------------------

 Alpha MOs
 -- Occupied --
-19.3869 -19.3584 -19.3535 -19.3365 -10.4927 -10.4661  -1.2560  -1.2061
 -1.1712  -1.1437  -0.8482  -0.7372  -0.6737  -0.6594  -0.6577  -0.5838
 -0.5627  -0.5280  -0.5160  -0.4910  -0.4443  -0.4308  -0.4260  -0.3980

          Ground-State Mulliken Net Atomic Charges

     Atom                 Charge (a.u.)
  ----------------------------------------
      1 O                    -0.496993
      2 C                     0.561960
      3 O                    -0.460365
      4 C                     0.397826
      5 O                    -0.400534
      6 O                    -0.668646
      7 H                     0.216847
      8 H                     0.210715
      9 H                     0.289651
     10 H                     0.349539
  ----------------------------------------
  Sum of atomic charges =     0.000000

                    Cartesian Multipole Moments
 -----------------------------------------------------------------
    Charge (ESU x 10^10)
                 0.0000
    Dipole Moment (Debye)
         X      -6.2810      Y       4.1555      Z       4.1180
       Tot       8.5835
    Quadrupole Moments (Debye-Ang)
        XX     -36.1155     XY       6.3668     YY     -38.0861
        XZ      -4.8837     YZ       1.0386     ZZ     -32.0624

 Total job time:  166.20s(wall), 659.27s(cpu)
        *  Thank you very much for using Q-Chem.  Have a nice day.  *
