 Q-Chem 5.4, Q-Chem, Inc., Pleasanton, CA (2021)
 Q-Chem 5.4.1 for Intel X86 EM64T Linux

User input:
--------------------------------------------------------------
$molecule
0 2
H         0.9949125964   -0.2747980045   -0.5238965483
O         0.5641584545    0.1829249315    0.2143091671
O        -0.7834916298   -0.1575927451    0.0736512841
H        -1.1135005784    0.4095156323   -0.7359600382
O        -1.6722188213    1.5031128363   -1.3322003106
H        -1.3466972213    2.2559545495   -0.8101570541
$end

$rem
BASIS = 6-311++G(2df,2p)
GUI = 2
JOB_TYPE = Frequency
METHOD = wB97M-V
SOLVENT_METHOD = SMD
SCF_ALGORITHM = DIIS_GDM
MAX_SCF_CYCLES = 400
SCF_CONVERGENCE = 7
THRESH = 12
UNRESTRICTED = 1
SYMMETRY_IGNORE = 1
$end

--------------------------------------------------------------

   27    -227.3128460489      7.12e-08  Convergence criterion met
 Total energy in the final basis set =     -227.3104373896
   23    -227.3128465660      3.63e-08  Convergence criterion met
 Total energy in the final basis set =     -227.3104371493
   23    -227.3128449838      3.82e-08  Convergence criterion met
 Total energy in the final basis set =     -227.3104370823
   23    -227.3128455338      3.68e-08  Convergence criterion met
 Total energy in the final basis set =     -227.3104371972
   23    -227.3128461193      3.44e-08  Convergence criterion met
 Total energy in the final basis set =     -227.3104371370
   23    -227.3128451407      3.80e-08  Convergence criterion met
 Total energy in the final basis set =     -227.3104369198
   23    -227.3128458936      3.73e-08  Convergence criterion met
 Total energy in the final basis set =     -227.3104367962
   23    -227.3128448712      3.58e-08  Convergence criterion met
 Frequency:     -1863.81                  36.27                 168.53
 Force Cnst:      2.4286                 0.0009                 0.0815
 Red. Mass:       1.1866                 1.1542                 4.8705
 IR Intens:    22306.889                212.097                 34.656
 Frequency:       308.13                 422.51                 650.02
 Force Cnst:      0.0745                 0.1593                 0.3708
 Red. Mass:       1.3316                 1.5143                 1.4897
 IR Intens:      238.101                 68.032                671.838
 Frequency:      1037.10                1312.72                1434.65
 Force Cnst:      2.5469                 1.1117                 1.3540
 Red. Mass:       4.0190                 1.0950                 1.1165
 IR Intens:      212.041                453.485                141.744
 Frequency:      1563.64                3737.33                3748.33
 Force Cnst:      1.9862                 8.7872                 8.8355
 Red. Mass:       1.3788                 1.0678                 1.0673
 IR Intens:     2688.117                477.829                 74.441

 STANDARD THERMODYNAMIC QUANTITIES AT   298.15 K  AND     1.00 ATM

   This Molecule has  1 Imaginary Frequencies
   Zero point vibrational energy:       20.613 kcal/mol

   Atom    1 Element H  Has Mass    1.00783
   Atom    2 Element O  Has Mass   15.99491
   Atom    3 Element O  Has Mass   15.99491
   Atom    4 Element H  Has Mass    1.00783
   Atom    5 Element O  Has Mass   15.99491
   Atom    6 Element H  Has Mass    1.00783
   Molecular Mass:    51.008220 amu
   Principal axes and moments of inertia in amu*Bohr^2:
                             1           2           3
    Eigenvalues --       48.93884   299.30342   337.73692
          X               0.67764     0.70596    -0.20597
          Y              -0.52334     0.65971     0.53936
          Z               0.51664    -0.25770     0.81650
   Rotational Symmetry Number is   1
   The Molecule is an Asymmetric Top
   Translational Enthalpy:        0.889 kcal/mol
   Rotational Enthalpy:           0.889 kcal/mol
   Vibrational Enthalpy:         22.095 kcal/mol
   gas constant (RT):             0.592 kcal/mol
   Translational Entropy:        37.711  cal/mol.K
   Rotational Entropy:           23.118  cal/mol.K
   Vibrational Entropy:          10.663  cal/mol.K

   Total Enthalpy:               24.465 kcal/mol
   Total Entropy:                71.492  cal/mol.K
 Total job time:  770.71s(wall), 5982.04s(cpu)
        *  Thank you very much for using Q-Chem.  Have a nice day.  *
 Q-Chem 5.4, Q-Chem, Inc., Pleasanton, CA (2021)
 Q-Chem 5.4.1 for Intel X86 EM64T Linux

User input:
--------------------------------------------------------------

$molecule
read
$end

$rem
JOBTYPE            rpath
SCF_GUESS          read
RPATH_MAX_CYCLES   30
BASIS = 6-311++G(2df,2p)
METHOD = wB97M-V
SOLVENT_METHOD = SMD
SCF_ALGORITHM = DIIS_GDM
SCF_CONVERGENCE = 7
THRESH = 12
$end
--------------------------------------------------------------

 Total energy in the final basis set =     -227.3188611147
   20    -227.3216988868      5.28e-08  Convergence criterion met
 Total energy in the final basis set =     -227.3192083608
   19    -227.3207776864      9.42e-08  Convergence criterion met
 Total energy in the final basis set =     -227.3183205935
   20    -227.3219196446      5.19e-08  Convergence criterion met
 Total energy in the final basis set =     -227.3194398887
   20    -227.3183387352      6.72e-08  Convergence criterion met
 Total energy in the final basis set =     -227.3157955617
   19    -227.3219545373      8.03e-08  Convergence criterion met
 Total energy in the final basis set =     -227.3194691365
   20    -227.3219505924      6.95e-08  Convergence criterion met
 Total energy in the final basis set =     -227.3194696953
   20    -227.3219630350      6.94e-08  Convergence criterion met
 Total energy in the final basis set =     -227.3194799126

                    Orbital Energies (a.u.)
 --------------------------------------------------------------

 Alpha MOs
 -- Occupied --
-19.4163 -19.3903 -19.3828  -1.2545  -1.1562  -1.0183  -0.6565  -0.6019
 -0.5984  -0.5447  -0.5315  -0.4786  -0.4139  -0.4085

 Beta MOs
 -- Occupied --
-19.3916 -19.3903 -19.3828  -1.2544  -1.0853  -1.0179  -0.6561  -0.5976
 -0.5720  -0.5439  -0.4499  -0.4131  -0.4065

          Ground-State Mulliken Net Atomic Charges

     Atom                 Charge (a.u.)    Spin (a.u.)
  --------------------------------------------------------
      1 H                     0.336758       0.000100
      2 O                    -0.343475       0.000972
      3 O                    -0.398794       0.000989
      4 H                     0.367393      -0.004709
      5 O                    -0.307062       1.018152
      6 H                     0.345180      -0.015502
  --------------------------------------------------------
  Sum of atomic charges =     0.000000

                    Cartesian Multipole Moments
 -----------------------------------------------------------------
    Charge (ESU x 10^10)
                 0.0000
    Dipole Moment (Debye)
         X       0.8603      Y       1.9076      Z      -1.8407
       Tot       2.7869
    Quadrupole Moments (Debye-Ang)
        XX     -17.8986     XY      -2.9016     YY     -13.6433
        XZ      -3.1451     YZ       1.0500     ZZ     -20.6752

             Standard Nuclear Orientation (Angstroms)
    I     Atom           X                Y                Z
 ----------------------------------------------------------------
    1      H       0.9949125964    -0.2747980045    -0.5238965483
    2      O       0.5641584545     0.1829249315     0.2143091671
    3      O      -0.7834916298    -0.1575927451     0.0736512841
    4      H      -1.1135005784     0.4095156323    -0.7359600382
    5      O      -1.6722188213     1.5031128363    -1.3322003106
    6      H      -1.3466972213     2.2559545495    -0.8101570541
 ----------------------------------------------------------------

 Total job time:  1504.76s(wall), 11674.02s(cpu)
        *  Thank you very much for using Q-Chem.  Have a nice day.  *
