 Q-Chem 5.4, Q-Chem, Inc., Pleasanton, CA (2021)
 Q-Chem 5.4.1 for Intel X86 EM64T Linux

User input:
--------------------------------------------------------------
$molecule
0 2
H    0.9860017   -0.6082515   -0.5134501
O    0.7113545    0.0695801    0.1191260
O   -0.7113545   -0.0695801    0.1191260
H   -1.0450972    0.7103513   -0.5919733
O   -1.3065782    1.6315673   -1.3269229
H   -1.9911635    2.1854501   -0.9201592
$end

$rem
BASIS = 6-311++G(2df,2p)
GUI = 2
JOB_TYPE = Frequency
METHOD = wB97M-V
SCF_ALGORITHM = DIIS_GDM
MAX_SCF_CYCLES = 400
SCF_CONVERGENCE = 6
THRESH = 11
SYMMETRY_IGNORE = 1
solvent_method = SMD
$end

--------------------------------------------------------------

   25    -227.3143285115      3.36e-07  Convergence criterion met
 Total energy in the final basis set =     -227.3119457931
   20    -227.3143307647      8.04e-07  Convergence criterion met
 Total energy in the final basis set =     -227.3119474795
   20    -227.3143259027      8.30e-07  Convergence criterion met
 Total energy in the final basis set =     -227.3119437511
   20    -227.3143226317      7.98e-07  Convergence criterion met
 Total energy in the final basis set =     -227.3119404206
   20    -227.3143334769      8.15e-07  Convergence criterion met
 Total energy in the final basis set =     -227.3119502512
   20    -227.3143173823      8.50e-07  Convergence criterion met
 Total energy in the final basis set =     -227.3119351690
   20    -227.3143388447      7.75e-07  Convergence criterion met
 Total energy in the final basis set =     -227.3119556211
   20    -227.3142316161      8.72e-07  Convergence criterion met
 Frequency:     -2718.25                -546.56                 130.99
 Force Cnst:      4.7164                 0.1937                 0.0129
 Red. Mass:       1.0834                 1.1005                 1.2804
 IR Intens:    32337.759                169.819                236.501
 Frequency:       278.43                 369.31                 709.32
 Force Cnst:      0.1546                 0.0945                 1.2057
 Red. Mass:       3.3840                 1.1763                 4.0674
 IR Intens:       55.081                206.957                216.398
 Frequency:       818.47                 918.98                1285.57
 Force Cnst:      0.5010                 3.2693                 1.0387
 Red. Mass:       1.2694                 6.5704                 1.0667
 IR Intens:       78.360                 31.491                170.444
 Frequency:      1377.56                3763.63                3789.65
 Force Cnst:      1.2290                 8.9078                 9.0369
 Red. Mass:       1.0993                 1.0674                 1.0680
 IR Intens:       62.430                497.953                319.266

 STANDARD THERMODYNAMIC QUANTITIES AT   298.15 K  AND     1.00 ATM

   This Molecule has  2 Imaginary Frequencies
   Zero point vibrational energy:       19.216 kcal/mol

   Atom    1 Element H  Has Mass    1.00783
   Atom    2 Element O  Has Mass   15.99491
   Atom    3 Element O  Has Mass   15.99491
   Atom    4 Element H  Has Mass    1.00783
   Atom    5 Element O  Has Mass   15.99491
   Atom    6 Element H  Has Mass    1.00783
   Molecular Mass:    51.008220 amu
   Principal axes and moments of inertia in amu*Bohr^2:
                             1           2           3
    Eigenvalues --       50.31385   291.61451   333.09470
          X               0.62480     0.78077     0.00506
          Y              -0.60228     0.47783     0.63948
          Z               0.49687    -0.40259     0.76879
   Rotational Symmetry Number is   1
   The Molecule is an Asymmetric Top
   Translational Enthalpy:        0.889 kcal/mol
   Rotational Enthalpy:           0.889 kcal/mol
   Vibrational Enthalpy:         20.294 kcal/mol
   gas constant (RT):             0.592 kcal/mol
   Translational Entropy:        37.711  cal/mol.K
   Rotational Entropy:           23.106  cal/mol.K
   Vibrational Entropy:           6.224  cal/mol.K

   Total Enthalpy:               22.664 kcal/mol
   Total Entropy:                67.041  cal/mol.K
 Total job time:  531.24s(wall), 8151.41s(cpu)
        *  Thank you very much for using Q-Chem.  Have a nice day.  *
 Q-Chem 5.4, Q-Chem, Inc., Pleasanton, CA (2021)
 Q-Chem 5.4.1 for Intel X86 EM64T Linux

User input:
--------------------------------------------------------------

$rem
JOBTYPE = ts
SCF_GUESS = read
GEOM_OPT_HESSIAN = read
MAX_SCF_CYCLES = 350
GEOM_OPT_DMAX = 60
GEOM_OPT_MAX_CYCLES = 250
METHOD = wB97M-v
BASIS = 6-311++G(2df,2p)
SCF_CONVERGENCE = 7
THRESH = 12
SCF_ALGORITHM = DIIS_GDM
solvent_method = SMD
$end

$molecule
read
$end
--------------------------------------------------------------

   23    -227.3127831039      5.86e-08  Convergence criterion met
 Total energy in the final basis set =     -227.3103618640
   23    -227.3128011289      5.70e-08  Convergence criterion met
 Total energy in the final basis set =     -227.3103815271
   23    -227.3128187029      5.58e-08  Convergence criterion met
 Total energy in the final basis set =     -227.3104008731
   23    -227.3128326024      5.51e-08  Convergence criterion met
 Total energy in the final basis set =     -227.3104167322
   23    -227.3128427968      5.30e-08  Convergence criterion met
 Total energy in the final basis set =     -227.3104296322
   23    -227.3128468845      4.59e-08  Convergence criterion met
 Total energy in the final basis set =     -227.3104368389

             Standard Nuclear Orientation (Angstroms)
    I     Atom           X                Y                Z
 ----------------------------------------------------------------
    1      H       0.9949125964    -0.2747980045    -0.5238965483
    2      O       0.5641584545     0.1829249315     0.2143091671
    3      O      -0.7834916298    -0.1575927451     0.0736512841
    4      H      -1.1135005784     0.4095156323    -0.7359600382
    5      O      -1.6722188213     1.5031128363    -1.3322003106
    6      H      -1.3466972213     2.2559545495    -0.8101570541
 ----------------------------------------------------------------

   23    -227.3128460488      4.09e-08  Convergence criterion met
 Total energy in the final basis set =     -227.3104373895
 Final energy is   -227.310437389523
 **  OPTIMIZATION CONVERGED  **

                    Orbital Energies (a.u.)
 --------------------------------------------------------------

 Alpha MOs
 -- Occupied --
-19.4167 -19.4107 -19.3928  -1.2881  -1.1482  -1.0252  -0.6994  -0.6232
 -0.5896  -0.5700  -0.5078  -0.4667  -0.4353  -0.4088

 Beta MOs
 -- Occupied --
-19.4090 -19.4088 -19.3735  -1.2784  -1.1002  -1.0103  -0.6833  -0.5996
 -0.5665  -0.5597  -0.4467  -0.4254  -0.3976

          Ground-State Mulliken Net Atomic Charges

     Atom                 Charge (a.u.)    Spin (a.u.)
  --------------------------------------------------------
      1 H                     0.340871      -0.001515
      2 O                    -0.286399       0.059213
      3 O                    -0.306452       0.248585
      4 H                     0.381803      -0.041443
      5 O                    -0.477000       0.748548
      6 H                     0.347177      -0.013388
  --------------------------------------------------------
  Sum of atomic charges =     0.000000

                    Cartesian Multipole Moments
 -----------------------------------------------------------------
    Charge (ESU x 10^10)
                 0.0000
    Dipole Moment (Debye)
         X       1.8894      Y       0.8797      Z      -1.4056
       Tot       2.5138
    Quadrupole Moments (Debye-Ang)
        XX     -20.2797     XY      -1.8575     YY     -13.3701
        XZ      -3.0313     YZ       0.8666     ZZ     -20.3822

 Total job time:  550.94s(wall), 8465.24s(cpu)
        *  Thank you very much for using Q-Chem.  Have a nice day.  *
