 Q-Chem 5.4, Q-Chem, Inc., Pleasanton, CA (2021)
 Q-Chem 5.4.1 for Intel X86 EM64T Linux

User input:
--------------------------------------------------------------
$molecule
-1 2
C         0.2893629763    0.0315406487    0.5566337965
O         0.6541680611   -1.1565349345    0.4174602413
C        -1.2484564108    0.2451230646    0.4406601187
O        -1.9097781564   -0.9131982675    0.1604466214
O        -1.5417753257    1.2702625386   -0.4185445904
O         0.9759381516    1.0444137214    0.7745928551
O        -1.7384232270    0.7473130169    1.7662032033
O        -1.5108119417   -0.1144755690    2.7119986494
H        -1.2217318192   -1.6053856353    0.1817768981
H        -2.4856635083    1.2394733162   -0.6302879932
$end

$rem
BASIS = 6-31G(d)
JOB_TYPE = SP
METHOD = wB97M-V
SCF_ALGORITHM = DIIS_GDM
MAX_SCF_CYCLES = 400
SCF_CONVERGENCE = 7
THRESH = 12
Solvent_method = SMD
$end
--------------------------------------------------------------

             Standard Nuclear Orientation (Angstroms)
    I     Atom           X                Y                Z
 ----------------------------------------------------------------
    1      C       0.2893629763     0.0315406487     0.5566337965
    2      O       0.6541680611    -1.1565349345     0.4174602413
    3      C      -1.2484564108     0.2451230646     0.4406601187
    4      O      -1.9097781564    -0.9131982675     0.1604466214
    5      O      -1.5417753257     1.2702625386    -0.4185445904
    6      O       0.9759381516     1.0444137214     0.7745928551
    7      O      -1.7384232270     0.7473130169     1.7662032033
    8      O      -1.5108119417    -0.1144755690     2.7119986494
    9      H      -1.2217318192    -1.6053856353     0.1817768981
   10      H      -2.4856635083     1.2394733162    -0.6302879932
 ----------------------------------------------------------------

   21    -528.6543518454      6.84e-08  Convergence criterion met
 Total energy in the final basis set =     -528.6480339598

                    Orbital Energies (a.u.)
 --------------------------------------------------------------

 Alpha MOs
 -- Occupied --
-19.4635 -19.4248 -19.3746 -19.3673 -19.3050 -19.2972 -10.5062 -10.4511
 -1.3332  -1.2222  -1.1615  -1.1497  -1.0749  -0.9772  -0.7933  -0.7023
 -0.6602  -0.6497  -0.5946  -0.5873  -0.5686  -0.5225  -0.5113  -0.5040
 -0.4909  -0.4587  -0.4173  -0.3945  -0.3810  -0.3581  -0.3505  -0.3418

 Beta MOs
 -- Occupied --
-19.4537 -19.4065 -19.3747 -19.3672 -19.3049 -19.2972 -10.5066 -10.4510
 -1.3090  -1.2187  -1.1614  -1.1496  -1.0747  -0.9428  -0.7870  -0.6966
 -0.6568  -0.6391  -0.5811  -0.5604  -0.5322  -0.5194  -0.5092  -0.4982
 -0.4857  -0.4527  -0.4142  -0.3731  -0.3581  -0.3505  -0.3411

          Ground-State Mulliken Net Atomic Charges

     Atom                 Charge (a.u.)    Spin (a.u.)
  --------------------------------------------------------
      1 C                     0.526032       0.008133
      2 O                    -0.661040       0.004064
      3 C                     0.618027      -0.010979
      4 O                    -0.662915       0.003422
      5 O                    -0.654125      -0.001384
      6 O                    -0.658267      -0.000566
      7 O                    -0.210055       0.314375
      8 O                    -0.215016       0.683377
      9 H                     0.452725      -0.000464
     10 H                     0.464634       0.000023
  --------------------------------------------------------
  Sum of atomic charges =    -1.000000

                    Cartesian Multipole Moments
 -----------------------------------------------------------------
    Charge (ESU x 10^10)
                -4.8032
    Dipole Moment (Debye)
         X      -3.1164      Y      -0.9761      Z      -5.7377
       Tot       6.6020
    Quadrupole Moments (Debye-Ang)
        XX     -49.0613     XY      -2.8955     YY     -51.6929
        XZ       4.1881     YZ      -1.8670     ZZ     -55.3192

 Total job time:  82.14s(wall), 192.98s(cpu)
        *  Thank you very much for using Q-Chem.  Have a nice day.  *
