 Q-Chem 5.4, Q-Chem, Inc., Pleasanton, CA (2021)
 Q-Chem 5.4.1 for Intel X86 EM64T Linux

User input:
--------------------------------------------------------------
$molecule
0 1
H         0.9621686072    2.1095025196   -1.8346621507
C         1.4071512487    1.4958206058   -1.0486152001
O         1.4206384636    1.7908817174    0.1222901401
O         1.9321222613    0.3813255764   -1.5529563606
H         2.3205960192   -0.1453382193   -0.8349901288
$end

$rem
BASIS = 6-311++G(2df,2p)
GUI = 2
JOB_TYPE = Frequency
METHOD = wB97M-V
SOLVENT_METHOD = SMD
SCF_ALGORITHM = DIIS_GDM
MAX_SCF_CYCLES = 400
SCF_CONVERGENCE = 7
THRESH = 12
SYMMETRY_IGNORE = 1
$end
--------------------------------------------------------------

   12    -189.7893835693      4.48e-08  Convergence criterion met
 Total energy in the final basis set =     -189.7825260996
   12    -189.7893834678      2.94e-08  Convergence criterion met
 Total energy in the final basis set =     -189.7825258964
   12    -189.7893833739      2.95e-08  Convergence criterion met
 Total energy in the final basis set =     -189.7825260048
   12    -189.7893831296      2.95e-08  Convergence criterion met
 Total energy in the final basis set =     -189.7825258653
   12    -189.7893834747      2.92e-08  Convergence criterion met
 Total energy in the final basis set =     -189.7825257959
   12    -189.7893831496      2.95e-08  Convergence criterion met
 Total energy in the final basis set =     -189.7825257463
   12    -189.7893832536      2.99e-08  Convergence criterion met
 Total energy in the final basis set =     -189.7825257110
   12    -189.7893854995      2.96e-08  Convergence criterion met
 Total energy in the final basis set =     -189.7825252916
   12    -189.7893798210      2.83e-08  Convergence criterion met
 Total energy in the final basis set =     -189.7825252554
   12    -189.7893837746      2.98e-08  Convergence criterion met
 Total energy in the final basis set =     -189.7825258978
   12    -189.7893830235      3.01e-08  Convergence criterion met
 Total energy in the final basis set =     -189.7825259606
   12    -189.7893824186      2.97e-08  Convergence criterion met
 Total energy in the final basis set =     -189.7825256736
   12    -189.7893840652      2.88e-08  Convergence criterion met
 Total energy in the final basis set =     -189.7825258706
   12    -189.7893832169      2.93e-08  Convergence criterion met
 Total energy in the final basis set =     -189.7825256290
   12    -189.7893829122      3.07e-08  Convergence criterion met
 Total energy in the final basis set =     -189.7825255605

                    Orbital Energies (a.u.)
 --------------------------------------------------------------

 Alpha MOs
 -- Occupied --
-19.3883 -19.3404 -10.4862  -1.2498  -1.1629  -0.7818  -0.6349  -0.6185
 -0.5691  -0.5174  -0.4437  -0.4083

          Ground-State Mulliken Net Atomic Charges

     Atom                 Charge (a.u.)
  ----------------------------------------
      1 H                     0.204755
      2 C                     0.236824
      3 O                    -0.478999
      4 O                    -0.315749
      5 H                     0.353169
  ----------------------------------------
  Sum of atomic charges =     0.000000

                    Cartesian Multipole Moments
 -----------------------------------------------------------------
    Charge (ESU x 10^10)
                 0.0000
    Dipole Moment (Debye)
         X       0.4361      Y      -1.3245      Z      -1.8833
       Tot       2.3434
    Quadrupole Moments (Debye-Ang)
        XX     -14.8389     XY      -3.1449     YY     -18.7739
        XZ      -1.6399     YZ      -5.3979     ZZ     -17.9018

             Standard Nuclear Orientation (Angstroms)
    I     Atom           X                Y                Z
 ----------------------------------------------------------------
    1      H       0.9621686072     2.1095025196    -1.8346621507
    2      C       1.4071512487     1.4958206058    -1.0486152001
    3      O       1.4206384636     1.7908817174     0.1222901401
    4      O       1.9321222613     0.3813255764    -1.5529563606
    5      H       2.3205960192    -0.1453382193    -0.8349901288
 ----------------------------------------------------------------

 Frequency:       628.90                 639.30                1076.83
 Force Cnst:      0.2922                 0.8691                 1.0758
 Red. Mass:       1.2538                 3.6093                 1.5747
 IR Intens:      252.599                 82.086                  3.181
 Frequency:      1111.36                1302.67                1420.68
 Force Cnst:      2.8655                 1.6012                 1.3629
 Red. Mass:       3.9377                 1.6015                 1.1461
 IR Intens:      548.838                 13.520                  9.977
 Frequency:      1732.89                3120.90                3724.25
 Force Cnst:     13.2135                 6.2731                 8.6995
 Red. Mass:       7.4684                 1.0931                 1.0646
 IR Intens:      771.976                 29.728                182.085

 STANDARD THERMODYNAMIC QUANTITIES AT   298.15 K  AND     1.00 ATM

   This Molecule has  0 Imaginary Frequencies
   Zero point vibrational energy:       21.097 kcal/mol

   Atom    1 Element H  Has Mass    1.00783
   Atom    2 Element C  Has Mass   12.00000
   Atom    3 Element O  Has Mass   15.99491
   Atom    4 Element O  Has Mass   15.99491
   Atom    5 Element H  Has Mass    1.00783
   Molecular Mass:    46.005480 amu
   Principal axes and moments of inertia in amu*Bohr^2:
                             1           2           3
    Eigenvalues --       23.39299   148.44601   171.83900
          X              -0.24522     0.42042     0.87356
          Y               0.65229    -0.59506     0.46949
          Z               0.71721     0.68494    -0.12831
   Rotational Symmetry Number is   1
   The Molecule is an Asymmetric Top
   Translational Enthalpy:        0.889 kcal/mol
   Rotational Enthalpy:           0.889 kcal/mol
   Vibrational Enthalpy:         21.320 kcal/mol
   gas constant (RT):             0.592 kcal/mol
   Translational Entropy:        37.404  cal/mol.K
   Rotational Entropy:           21.017  cal/mol.K
   Vibrational Entropy:           0.965  cal/mol.K

   Total Enthalpy:               23.690 kcal/mol
   Total Entropy:                59.386  cal/mol.K
 Total job time:  362.38s(wall), 2758.81s(cpu)
        *  Thank you very much for using Q-Chem.  Have a nice day.  *
