 Q-Chem 5.4, Q-Chem, Inc., Pleasanton, CA (2021)
 Q-Chem 5.4.1 for Intel X86 EM64T Linux

User input:
--------------------------------------------------------------
$molecule
0 1
H         0.9614214850    2.1098697115   -1.8385691201
C         1.4074309117    1.4957472336   -1.0476080442
O         1.4226503231    1.7886602500    0.1282979375
O         1.9320678382    0.3785370143   -1.5623264322
H         2.3191060421   -0.1406220095   -0.8287280410
$end

$rem
BASIS = 6-311++G(2df,2p)
GUI = 2
JOB_TYPE = Optimization
METHOD = wB97M-V
SCF_ALGORITHM = DIIS_GDM
MAX_SCF_CYCLES = 400
GEOM_OPT_MAX_CYCLES = 150
SCF_CONVERGENCE = 7
THRESH = 12
Solvent_method = SMD
$end
--------------------------------------------------------------

   12    -189.7891581209      3.99e-08  Convergence criterion met
 Total energy in the final basis set =     -189.7823612657
   12    -189.7893631739      2.98e-08  Convergence criterion met
 Total energy in the final basis set =     -189.7825173430
   12    -189.7893604885      3.97e-08  Convergence criterion met
 Total energy in the final basis set =     -189.7825062211
   12    -189.7893748962      3.95e-08  Convergence criterion met
 Total energy in the final basis set =     -189.7825142674
   12    -189.7893793410      2.80e-08  Convergence criterion met
 Total energy in the final basis set =     -189.7825245216

             Standard Nuclear Orientation (Angstroms)
    I     Atom           X                Y                Z
 ----------------------------------------------------------------
    1      H       0.9621686072     2.1095025196    -1.8346621507
    2      C       1.4071512487     1.4958206058    -1.0486152001
    3      O       1.4206384636     1.7908817174     0.1222901401
    4      O       1.9321222613     0.3813255764    -1.5529563606
    5      H       2.3205960192    -0.1453382193    -0.8349901288
 ----------------------------------------------------------------

   12    -189.7893835693      3.00e-08  Convergence criterion met
 Total energy in the final basis set =     -189.7825260995
 Final energy is   -189.782526099548
 **  OPTIMIZATION CONVERGED  **

                    Orbital Energies (a.u.)
 --------------------------------------------------------------

 Alpha MOs
 -- Occupied --
-19.3884 -19.3404 -10.4861  -1.2498  -1.1629  -0.7816  -0.6348  -0.6184
 -0.5691  -0.5174  -0.4437  -0.4083

          Ground-State Mulliken Net Atomic Charges

     Atom                 Charge (a.u.)
  ----------------------------------------
      1 H                     0.204742
      2 C                     0.236812
      3 O                    -0.479014
      4 O                    -0.315966
      5 H                     0.353426
  ----------------------------------------
  Sum of atomic charges =     0.000000

                    Cartesian Multipole Moments
 -----------------------------------------------------------------
    Charge (ESU x 10^10)
                -0.0000
    Dipole Moment (Debye)
         X       0.4360      Y      -1.3246      Z      -1.8819
       Tot       2.3423
    Quadrupole Moments (Debye-Ang)
        XX     -14.8401     XY      -3.1449     YY     -18.7752
        XZ      -1.6361     YZ      -5.3986     ZZ     -17.9039

 Total job time:  65.28s(wall), 495.62s(cpu)
        *  Thank you very much for using Q-Chem.  Have a nice day.  *
