 Q-Chem 5.4, Q-Chem, Inc., Pleasanton, CA (2021)
 Q-Chem 5.4.1 for Intel X86 EM64T Linux

User input:
--------------------------------------------------------------
$molecule
0 3
O         0.5453964939    0.3184922832    0.7150050378
O         0.6859044353   -0.7881363120    1.1488052394
H         2.0060155610   -1.1190209994    3.2414712730
O         2.5405698743   -1.5906114977    3.8882252731
H         3.3883004354   -1.1347333741    3.8738896766
$end

$rem
BASIS = 6-311++G(2df,2p)
GUI = 2
JOB_TYPE = Frequency
METHOD = wB97M-V
SOLVENT_METHOD = SMD
SCF_ALGORITHM = DIIS_GDM
MAX_SCF_CYCLES = 400
SCF_CONVERGENCE = 7
THRESH = 12
$end

--------------------------------------------------------------

   15    -226.7788157760      9.11e-08  Convergence criterion met
 Total energy in the final basis set =     -226.7769605524
   14    -226.7788158095      3.36e-08  Convergence criterion met
 Total energy in the final basis set =     -226.7769605859
   14    -226.7788156961      3.36e-08  Convergence criterion met
 Total energy in the final basis set =     -226.7769604726
   14    -226.7788139047      3.54e-08  Convergence criterion met
 Total energy in the final basis set =     -226.7769586812
   14    -226.7788149637      3.52e-08  Convergence criterion met
 Total energy in the final basis set =     -226.7769597401
   14    -226.7788159580      3.52e-08  Convergence criterion met
 Total energy in the final basis set =     -226.7769607344
   14    -226.7788151803      3.37e-08  Convergence criterion met
 Total energy in the final basis set =     -226.7769599568
   14    -226.7788153491      3.33e-08  Convergence criterion met
 Frequency:       -99.27                  30.94                  65.90
 Force Cnst:      0.0068                 0.0068                 0.0040
 Red. Mass:       1.1654                12.0315                 1.5634
 IR Intens:      207.954                  0.897                 86.375
 Frequency:        91.25                 182.21                1589.67
 Force Cnst:      0.0105                 0.0222                 1.6108
 Red. Mass:       2.1319                 1.1361                 1.0819
 IR Intens:       85.955                161.921                125.310
 Frequency:      1704.61                3822.62                3903.39
 Force Cnst:     27.3605                 9.0061                 9.7052
 Red. Mass:      15.9818                 1.0461                 1.0811
 IR Intens:        0.001                 56.483                180.488

 STANDARD THERMODYNAMIC QUANTITIES AT   298.15 K  AND     1.00 ATM

   This Molecule has  1 Imaginary Frequencies
   Zero point vibrational energy:       16.284 kcal/mol

   Atom    1 Element O  Has Mass   15.99491
   Atom    2 Element O  Has Mass   15.99491
   Atom    3 Element H  Has Mass    1.00783
   Atom    4 Element O  Has Mass   15.99491
   Atom    5 Element H  Has Mass    1.00783
   Molecular Mass:    50.000390 amu
   Principal axes and moments of inertia in amu*Bohr^2:
                             1           2           3
    Eigenvalues --       25.05691   599.46219   621.91215
          X               0.50955     0.37429     0.77476
          Y              -0.38091     0.90552    -0.18694
          Z               0.77153     0.19985    -0.60398
   Rotational Symmetry Number is   1
   The Molecule is an Asymmetric Top
   Translational Enthalpy:        0.889 kcal/mol
   Rotational Enthalpy:           0.889 kcal/mol
   Vibrational Enthalpy:         18.181 kcal/mol
   gas constant (RT):             0.592 kcal/mol
   Translational Entropy:        37.652  cal/mol.K
   Rotational Entropy:           23.750  cal/mol.K
   Vibrational Entropy:          15.992  cal/mol.K

   Total Enthalpy:               20.551 kcal/mol
   Total Entropy:                77.394  cal/mol.K
 Total job time:  350.44s(wall), 2679.56s(cpu)
        *  Thank you very much for using Q-Chem.  Have a nice day.  *
 Q-Chem 5.4, Q-Chem, Inc., Pleasanton, CA (2021)
 Q-Chem 5.4.1 for Intel X86 EM64T Linux

User input:
--------------------------------------------------------------

$molecule
read
$end

$rem
JOBTYPE            rpath
SCF_GUESS          read
RPATH_MAX_CYCLES   30
BASIS = 6-311++G(2df,2p)
METHOD = wB97M-V
SOLVENT_METHOD = SMD
SCF_ALGORITHM = DIIS_GDM
SCF_CONVERGENCE = 7
THRESH = 12
$end
--------------------------------------------------------------

 Total energy in the final basis set =     -226.7769339061
   14    -226.7788157788      5.23e-08  Convergence criterion met
 Total energy in the final basis set =     -226.7769605552
   14    -226.7788159691      3.35e-08  Convergence criterion met
 Total energy in the final basis set =     -226.7769606720
   14    -226.7788159752      3.33e-08  Convergence criterion met
 Total energy in the final basis set =     -226.7769606726
   15    -226.7744919973      6.39e-08  Convergence criterion met
 Total energy in the final basis set =     -226.7726191201
   14    -226.7788161092      3.35e-08  Convergence criterion met
 Total energy in the final basis set =     -226.7769607385
   14    -226.7788160641      3.35e-08  Convergence criterion met
 Total energy in the final basis set =     -226.7769607272
   14    -226.7788161228      3.32e-08  Convergence criterion met
 Total energy in the final basis set =     -226.7769607677

                    Orbital Energies (a.u.)
 --------------------------------------------------------------

 Alpha MOs
 -- Occupied --
-19.4896 -19.4895 -19.3329  -1.4421  -1.1389  -0.9597  -0.6784  -0.6776
 -0.6660  -0.6328  -0.5080  -0.4315  -0.4093  -0.4092

 Beta MOs
 -- Occupied --
-19.4594 -19.4590 -19.3329  -1.3859  -1.1388  -0.8728  -0.6354  -0.6188
 -0.5719  -0.5718  -0.5076  -0.4313

          Ground-State Mulliken Net Atomic Charges

     Atom                 Charge (a.u.)    Spin (a.u.)
  --------------------------------------------------------
      1 O                     0.012489       1.001776
      2 O                    -0.002398       0.996718
      3 H                     0.323977      -0.000909
      4 O                    -0.667244       0.002232
      5 H                     0.333176       0.000183
  --------------------------------------------------------
  Sum of atomic charges =     0.000000

                    Cartesian Multipole Moments
 -----------------------------------------------------------------
    Charge (ESU x 10^10)
                 0.0000
    Dipole Moment (Debye)
         X       0.6448      Y       1.9797      Z      -1.4280
       Tot       2.5247
    Quadrupole Moments (Debye-Ang)
        XX     -11.5960     XY       4.4190     YY     -23.5336
        XZ       0.0186     YZ       9.1549     ZZ     -27.8544

             Standard Nuclear Orientation (Angstroms)
    I     Atom           X                Y                Z
 ----------------------------------------------------------------
    1      O       0.5453964939     0.3184922832     0.7150050378
    2      O       0.6859044353    -0.7881363120     1.1488052394
    3      H       2.0060155610    -1.1190209994     3.2414712730
    4      O       2.5405698743    -1.5906114977     3.8882252731
    5      H       3.3883004354    -1.1347333741     3.8738896766
 ----------------------------------------------------------------

 Total job time:  208.11s(wall), 1584.86s(cpu)
        *  Thank you very much for using Q-Chem.  Have a nice day.  *
