 Q-Chem 5.4, Q-Chem, Inc., Pleasanton, CA (2021)
 Q-Chem 5.4.1 for Intel X86 EM64T Linux

User input:
--------------------------------------------------------------
$molecule
0 3
O    0.2842434   -0.1262234    0.7733592
O    0.6656875   -0.9429672    1.7251071
H    1.8541998   -0.4026234    2.1288855
O    3.0079680    0.2729300    2.4713775
H    3.7309935   -0.1352543    1.9586743
$end

$rem
BASIS = 6-311++G(2df,2p)
GUI = 2
JOB_TYPE = Frequency
METHOD = wB97M-V
SCF_ALGORITHM = DIIS_GDM
MAX_SCF_CYCLES = 400
SCF_CONVERGENCE = 6
THRESH = 11
solvent_method = SMD
$end

--------------------------------------------------------------

   16    -226.6876358176      6.06e-07  Convergence criterion met
 Total energy in the final basis set =     -226.6861114974
   15    -226.6876947923      5.38e-07  Convergence criterion met
 Total energy in the final basis set =     -226.6861705823
   15    -226.6875765008      5.35e-07  Convergence criterion met
 Total energy in the final basis set =     -226.6860520702
   15    -226.6874882394      5.47e-07  Convergence criterion met
 Total energy in the final basis set =     -226.6859639617
   15    -226.6877827749      5.33e-07  Convergence criterion met
 Total energy in the final basis set =     -226.6862584120
   15    -226.6877999995      5.32e-07  Convergence criterion met
 Total energy in the final basis set =     -226.6862757166
   15    -226.6874708134      5.38e-07  Convergence criterion met
 Total energy in the final basis set =     -226.6859464559
   15    -226.6875662094      5.43e-07  Convergence criterion met
 Frequency:     -1615.53                 267.39                 371.73
 Force Cnst:      1.6060                 0.4542                 0.0930
 Red. Mass:       1.0444                10.7821                 1.1425
 IR Intens:     2381.813                  2.610                207.910
 Frequency:       476.56                 756.44                1109.29
 Force Cnst:      1.7622                 0.3604                 6.7217
 Red. Mass:      13.1694                 1.0689                 9.2712
 IR Intens:        1.685                 85.757                 27.889
 Frequency:      1261.62                1391.93                3680.84
 Force Cnst:      1.0081                 1.2036                 8.5175
 Red. Mass:       1.0750                 1.0544                 1.0670
 IR Intens:      212.550                136.783                 99.965

 STANDARD THERMODYNAMIC QUANTITIES AT   298.15 K  AND     1.00 ATM

   This Molecule has  1 Imaginary Frequencies
   Zero point vibrational energy:       13.318 kcal/mol

   Atom    1 Element O  Has Mass   15.99491
   Atom    2 Element O  Has Mass   15.99491
   Atom    3 Element H  Has Mass    1.00783
   Atom    4 Element O  Has Mass   15.99491
   Atom    5 Element H  Has Mass    1.00783
   Molecular Mass:    50.000390 amu
   Principal axes and moments of inertia in amu*Bohr^2:
                             1           2           3
    Eigenvalues --       44.21623   356.31588   394.77526
          X               0.87198     0.10005    -0.47921
          Y               0.21851     0.79642     0.56388
          Z               0.43807    -0.59641     0.67260
   Rotational Symmetry Number is   1
   The Molecule is an Asymmetric Top
   Translational Enthalpy:        0.889 kcal/mol
   Rotational Enthalpy:           0.889 kcal/mol
   Vibrational Enthalpy:         14.058 kcal/mol
   gas constant (RT):             0.592 kcal/mol
   Translational Entropy:        37.652  cal/mol.K
   Rotational Entropy:           23.346  cal/mol.K
   Vibrational Entropy:           3.761  cal/mol.K

   Total Enthalpy:               16.427 kcal/mol
   Total Entropy:                64.759  cal/mol.K
 Total job time:  567.58s(wall), 2174.26s(cpu)
        *  Thank you very much for using Q-Chem.  Have a nice day.  *
 Q-Chem 5.4, Q-Chem, Inc., Pleasanton, CA (2021)
 Q-Chem 5.4.1 for Intel X86 EM64T Linux

User input:
--------------------------------------------------------------

$rem
JOBTYPE = ts
SCF_GUESS = read
GEOM_OPT_HESSIAN = read
MAX_SCF_CYCLES = 350
GEOM_OPT_DMAX = 60
GEOM_OPT_MAX_CYCLES = 250
METHOD = wB97M-v
BASIS = 6-311++G(2df,2p)
SCF_CONVERGENCE = 7
THRESH = 12
SCF_ALGORITHM = DIIS_GDM
solvent_method = SMD
$end

$molecule
read
$end
--------------------------------------------------------------

   27    -226.6802787508      5.56e-08  Convergence criterion met
 Total energy in the final basis set =     -226.6787651108
   27    -226.6802680131      4.89e-08  Convergence criterion met
 Total energy in the final basis set =     -226.6787550467
   26    -226.6802639905      8.67e-08  Convergence criterion met
 Total energy in the final basis set =     -226.6787524846
   27    -226.6802695471      4.12e-08  Convergence criterion met
 Total energy in the final basis set =     -226.6787620996
   27    -226.6802674500      4.28e-08  Convergence criterion met
 Total energy in the final basis set =     -226.6787574393
   27    -226.6802724401      4.07e-08  Convergence criterion met
 Total energy in the final basis set =     -226.6787695432

             Standard Nuclear Orientation (Angstroms)
    I     Atom           X                Y                Z
 ----------------------------------------------------------------
    1      O       0.1478848456    -0.0549393023     0.9611873216
    2      O       0.7899766904    -0.9616020836     1.6578985938
    3      H       1.6530288430    -0.5416351474     1.9102722620
    4      O       3.0896488536     0.4094351371     2.2484621502
    5      H       3.8625529674    -0.1853969039     2.2795832724
 ----------------------------------------------------------------

   27    -226.6802729055      4.35e-08  Convergence criterion met
 Total energy in the final basis set =     -226.6787694378
 Final energy is   -226.678769437844
 **  OPTIMIZATION CONVERGED  **

                    Orbital Energies (a.u.)
 --------------------------------------------------------------

 Alpha MOs
 -- Occupied --
-19.4428 -19.4215 -19.4145  -1.3287  -1.1608  -0.9860  -0.6767  -0.6081
 -0.6050  -0.5918  -0.5364  -0.4881  -0.4041  -0.4009

 Beta MOs
 -- Occupied --
-19.4330 -19.3967 -19.3952  -1.3015  -1.0894  -0.9452  -0.6601  -0.5801
 -0.5700  -0.5213  -0.4564  -0.3815

          Ground-State Mulliken Net Atomic Charges

     Atom                 Charge (a.u.)    Spin (a.u.)
  --------------------------------------------------------
      1 O                    -0.247575       0.690404
      2 O                    -0.180316       0.315802
      3 H                     0.381315      -0.010685
      4 O                    -0.306524       1.019688
      5 H                     0.353100      -0.015210
  --------------------------------------------------------
  Sum of atomic charges =     0.000000

                    Cartesian Multipole Moments
 -----------------------------------------------------------------
    Charge (ESU x 10^10)
                 0.0000
    Dipole Moment (Debye)
         X       5.0033      Y      -1.1273      Z       1.6119
       Tot       5.3761
    Quadrupole Moments (Debye-Ang)
        XX       1.6076     XY      -5.5976     YY     -19.4732
        XZ      10.7421     YZ      -2.9184     ZZ     -12.0230

 Total job time:  3889.15s(wall), 15018.26s(cpu)
        *  Thank you very much for using Q-Chem.  Have a nice day.  *
