 Q-Chem 5.4, Q-Chem, Inc., Pleasanton, CA (2021)
 Q-Chem 5.4.1 for Intel X86 EM64T Linux

User input:
--------------------------------------------------------------
$molecule
-1 1
C         0.5976906250    0.1829920034    0.0003836046
O        -0.2116925879    1.0809780819    0.0002834213
C         2.1394850490    0.4145355110    0.0005056157
O         2.4827968949    1.6120878250    0.0005925006
O         2.8556453186   -0.6050976549    0.0004820653
O         0.2596265223   -1.1065494245    0.0003349708
H        -0.7087105219   -1.1729699418    0.0002458218
$end

$rem
BASIS = def2-TZVP
JOB_TYPE = SP
METHOD = wB97M-V
SCF_ALGORITHM = DIIS_GDM
MAX_SCF_CYCLES = 400
SCF_CONVERGENCE = 7
THRESH = 12
Solvent_method = SMD
$end
--------------------------------------------------------------

             Standard Nuclear Orientation (Angstroms)
    I     Atom           X                Y                Z
 ----------------------------------------------------------------
    1      C       0.5976906250     0.1829920034     0.0003836046
    2      O      -0.2116925879     1.0809780819     0.0002834213
    3      C       2.1394850490     0.4145355110     0.0005056157
    4      O       2.4827968949     1.6120878250     0.0005925006
    5      O       2.8556453186    -0.6050976549     0.0004820653
    6      O       0.2596265223    -1.1065494245     0.0003349708
    7      H      -0.7087105219    -1.1729699418     0.0002458218
 ----------------------------------------------------------------

   14    -377.9682891340      9.46e-08  Convergence criterion met
 Total energy in the final basis set =     -377.9592645876

                    Orbital Energies (a.u.)
 --------------------------------------------------------------

 Alpha MOs
 -- Occupied --
-19.3794 -19.3302 -19.2883 -19.2879 -10.4802 -10.4506  -1.2457  -1.1741
 -1.1545  -1.0873  -0.7930  -0.6688  -0.6135  -0.5892  -0.5800  -0.5372
 -0.5214  -0.5099  -0.4365  -0.4313  -0.3753  -0.3687  -0.3542

          Ground-State Mulliken Net Atomic Charges

     Atom                 Charge (a.u.)
  ----------------------------------------
      1 C                     0.325106
      2 O                    -0.436102
      3 C                     0.313444
      4 O                    -0.592239
      5 O                    -0.587990
      6 O                    -0.412072
      7 H                     0.389853
  ----------------------------------------
  Sum of atomic charges =    -1.000000

                    Cartesian Multipole Moments
 -----------------------------------------------------------------
    Charge (ESU x 10^10)
                -4.8032
    Dipole Moment (Debye)
         X     -13.1446      Y      -4.7264      Z      -0.0025
       Tot      13.9685
    Quadrupole Moments (Debye-Ang)
        XX     -70.8484     XY      -1.9606     YY     -48.4374
        XZ      -0.0071     YZ      -0.0022     ZZ     -33.4218

 Total job time:  55.87s(wall), 219.68s(cpu)
        *  Thank you very much for using Q-Chem.  Have a nice day.  *
