 Q-Chem 5.4, Q-Chem, Inc., Pleasanton, CA (2021)
 Q-Chem 5.4.1 for Intel X86 EM64T Linux

User input:
--------------------------------------------------------------
$molecule
0 2
C    0.9218778   -0.5082384   -0.1728241
O    1.9769910   -1.3212937   -0.1322844
H   -1.0972151    1.6037585   -0.0525714
C   -0.4072348   -0.9622271    0.0530754
O   -0.4907646   -2.2857667    0.2966910
O   -1.3989453   -0.2296213    0.0332588
O   -0.9922441    2.5709870   -0.0733451
H   -0.0717680    2.7197601    0.1648464
H   -1.4185314   -2.5181295    0.4511141
H    1.1297785    0.5272120   -0.3874122
H    1.7012417   -2.2284104    0.0717710
****
C    0.8220617    0.0736951   -0.4485307
O    1.6236500   -0.5144265    0.5593127
H   -1.5871128    0.5707949    0.7462737
C   -0.5601480   -0.5226812   -0.4727024
O   -0.5544166   -1.8150708   -0.9042455
O   -1.3470892   -0.3593620    0.6487320
O    0.7859252    1.4761347   -0.3172282
H    0.3901345    1.7050728    0.5336094
H   -1.4412764   -2.1855941   -0.8028489
H    1.3159474   -0.1365639   -1.3929679
H    1.1262613   -0.5067327    1.3877244
$end

$rem
BASIS = 6-311++G(2df,2p)
GUI = 2
JOB_TYPE = FSM
FSM_MODE = 2
METHOD = wB97M-v
MAX_SCF_CYCLES = 120
FSM_NGRAD = 6
FSM_NNODE = 20
SCF_CONVERGENCE = 7
THRESH = 12
SCF_ALGORITHM = DIIS_GDM
solvent_method = SMD
$end

--------------------------------------------------------------

   17    -380.1423049199      8.13e-08  Convergence criterion met
 Total energy in the final basis set =     -380.1338929106
   15    -380.1037091708      6.41e-08  Convergence criterion met
 Total energy in the final basis set =     -380.0979193742
   17    -380.1363853640      7.35e-08  Convergence criterion met
 Total energy in the final basis set =     -380.1279963952
   17    -380.1414003497      5.41e-08  Convergence criterion met
 Total energy in the final basis set =     -380.1329438230
   16    -380.0953273221      6.38e-08  Convergence criterion met
 Total energy in the final basis set =     -380.0894367256
   15    -380.0997070147      8.57e-08  Convergence criterion met
 Total energy in the final basis set =     -380.0940210584
   17    -380.1334267538      7.15e-08  Convergence criterion met
 Total energy in the final basis set =     -380.1250040506
   17    -380.1380693907      7.06e-08  Convergence criterion met
 Total job time:  2779.59s(wall), 41425.69s(cpu)
        *  Thank you very much for using Q-Chem.  Have a nice day.  *
 Q-Chem 5.4, Q-Chem, Inc., Pleasanton, CA (2021)
 Q-Chem 5.4.1 for Intel X86 EM64T Linux

User input:
--------------------------------------------------------------

$rem
JOBTYPE = ts
SCF_GUESS = read
GEOM_OPT_HESSIAN = read
MAX_SCF_CYCLES = 350
GEOM_OPT_DMAX = 60
GEOM_OPT_MAX_CYCLES = 250
METHOD = wB97M-v
BASIS = 6-311++G(2df,2p)
SCF_CONVERGENCE = 7
THRESH = 12
SCF_ALGORITHM = DIIS_GDM
solvent_method = SMD
$end

$molecule
read
$end
--------------------------------------------------------------

   18    -380.0707634329      4.54e-08  Convergence criterion met
 Total energy in the final basis set =     -380.0635800650
   18    -380.0707631699      4.40e-08  Convergence criterion met
 Total energy in the final basis set =     -380.0635795754
   18    -380.0707643012      4.55e-08  Convergence criterion met
 Total energy in the final basis set =     -380.0635796916
   18    -380.0707662850      4.52e-08  Convergence criterion met
 Total energy in the final basis set =     -380.0635794572
   18    -380.0707471238      4.78e-08  Convergence criterion met
 Total energy in the final basis set =     -380.0635782481
   17    -380.0707680753      8.68e-08  Convergence criterion met
 Total energy in the final basis set =     -380.0635794559

             Standard Nuclear Orientation (Angstroms)
    I     Atom           X                Y                Z
 ----------------------------------------------------------------
    1      C       0.6351553061    -0.1742863456    -0.6538708025
    2      O       1.8434702397    -0.6432654805    -0.3232718598
    3      H      -1.4287005242     0.8027628025    -0.2509602899
    4      C      -0.5305056039    -0.7820560059    -0.1895568093
    5      O      -0.4830446816    -1.9058752682     0.5141032543
    6      O      -1.6935932363    -0.1513290127    -0.3047218387
    7      O       0.1768711803     1.6372030236     0.2406024021
    8      H       0.2119096883     1.3908441728     1.1727454430
    9      H      -1.3220375754    -2.0415584132     0.9806881790
   10      H       0.6163824566     0.4070289141    -1.5587796726
   11      H       1.7900570991    -1.2109540112     0.4591851067
 ----------------------------------------------------------------

   18    -380.0707733632      4.46e-08  Convergence criterion met
 Total energy in the final basis set =     -380.0635797207
 Final energy is   -380.063579720703
 **  OPTIMIZATION CONVERGED  **

                    Orbital Energies (a.u.)
 --------------------------------------------------------------

 Alpha MOs
 -- Occupied --
-19.3991 -19.3874 -19.3820 -19.2829 -10.4874 -10.4486  -1.2684  -1.2184
 -1.1927  -1.0480  -0.8884  -0.7693  -0.7139  -0.6900  -0.6178  -0.5945
 -0.5552  -0.5395  -0.5227  -0.5082  -0.4911  -0.4690  -0.4049  -0.3803
 -0.2753

 Beta MOs
 -- Occupied --
-19.3961 -19.3859 -19.3800 -19.2757 -10.4806 -10.4449  -1.2615  -1.2149
 -1.1871  -1.0331  -0.8730  -0.7634  -0.7092  -0.6838  -0.6026  -0.5848
 -0.5491  -0.5296  -0.5105  -0.5001  -0.4817  -0.4555  -0.3720  -0.3597

          Ground-State Mulliken Net Atomic Charges

     Atom                 Charge (a.u.)    Spin (a.u.)
  --------------------------------------------------------
      1 C                    -0.101565       0.189574
      2 O                    -0.292031       0.044659
      3 H                     0.345782       0.003566
      4 C                     0.260498       0.406919
      5 O                    -0.331492       0.076684
      6 O                    -0.348519       0.056553
      7 O                    -0.858282       0.215262
      8 H                     0.317697       0.001360
      9 H                     0.376360       0.003332
     10 H                     0.284415       0.003622
     11 H                     0.347136      -0.001530
  --------------------------------------------------------
  Sum of atomic charges =     0.000000

                    Cartesian Multipole Moments
 -----------------------------------------------------------------
    Charge (ESU x 10^10)
                -0.0000
    Dipole Moment (Debye)
         X      -1.6672      Y      -5.8633      Z       2.0016
       Tot       6.4159
    Quadrupole Moments (Debye-Ang)
        XX     -37.1548     XY      -0.5862     YY     -41.6630
        XZ      -0.5004     YZ      -4.3638     ZZ     -30.2391

 Total job time:  2954.00s(wall), 43913.58s(cpu)
        *  Thank you very much for using Q-Chem.  Have a nice day.  *
