 Q-Chem 5.4, Q-Chem, Inc., Pleasanton, CA (2021)
 Q-Chem 5.4.1 for Intel X86 EM64T Linux

User input:
--------------------------------------------------------------
$molecule
0 2
C    2.1846777    0.9027811   -1.3249809
C   -0.1591031   -0.3642855   -2.5386952
O    0.2376495   -1.6726042   -2.7025111
O    0.0019772    0.3772120   -3.6728694
O    2.8724641    0.5098424   -2.3966387
H    0.0631989   -2.1499356   -1.8818740
H    0.8797612    0.2060870   -4.0417697
H    2.0838842    0.0909999   -0.6028209
H   -1.1113566   -0.1912311   -2.0477713
O    1.7655028    2.0250668   -1.1586363
H    2.9413161    1.2522535   -3.0195787
$end

$rem
BASIS = 6-311++G(2df,2p)
GUI = 2
JOB_TYPE = Frequency
METHOD = wB97M-V
SOLVENT_METHOD = SMD
SCF_ALGORITHM = DIIS_GDM
MAX_SCF_CYCLES = 400
SCF_CONVERGENCE = 7
THRESH = 12
$end
--------------------------------------------------------------

   16    -380.1026765054      9.26e-08  Convergence criterion met
 Total energy in the final basis set =     -380.0931952574
   15    -380.1026798481      6.71e-08  Convergence criterion met
 Total energy in the final basis set =     -380.0931947718
   15    -380.1026720478      7.18e-08  Convergence criterion met
 Total energy in the final basis set =     -380.0931946532
   15    -380.1026761374      6.76e-08  Convergence criterion met
 Total energy in the final basis set =     -380.0931935949
   15    -380.1026735967      7.14e-08  Convergence criterion met
 Total energy in the final basis set =     -380.0931936605
   15    -380.1026732514      7.38e-08  Convergence criterion met
 Total energy in the final basis set =     -380.0931941707
   15    -380.1026777762      6.57e-08  Convergence criterion met
 Total energy in the final basis set =     -380.0931944038
   15    -380.1026769009      7.11e-08  Convergence criterion met
 Total energy in the final basis set =     -380.0931951446
   15    -380.1026770364      6.82e-08  Convergence criterion met
 Total energy in the final basis set =     -380.0931950381
   15    -380.1026770204      6.99e-08  Convergence criterion met
 Total energy in the final basis set =     -380.0931951604
   15    -380.1026758983      6.94e-08  Convergence criterion met
 Total energy in the final basis set =     -380.0931952617
   15    -380.1026762140      7.23e-08  Convergence criterion met
 Total energy in the final basis set =     -380.0931947386
   15    -380.1026757338      6.67e-08  Convergence criterion met
 Total energy in the final basis set =     -380.0931947130
   15    -380.1026755713      6.70e-08  Convergence criterion met
 Total energy in the final basis set =     -380.0931947946
   15    -380.1026765893      7.17e-08  Convergence criterion met
 Total energy in the final basis set =     -380.0931948701

                    Orbital Energies (a.u.)
 --------------------------------------------------------------

 Alpha MOs
 -- Occupied --
-19.3864 -19.3651 -19.3646 -19.3371 -10.4844 -10.4346  -1.2474  -1.2202
 -1.1597  -1.1560  -0.7863  -0.7781  -0.6752  -0.6333  -0.6166  -0.6129
 -0.5837  -0.5485  -0.5160  -0.5032  -0.4902  -0.4490  -0.4422  -0.4061
 -0.2639

 Beta MOs
 -- Occupied --
-19.3863 -19.3616 -19.3612 -19.3365 -10.4844 -10.4217  -1.2470  -1.2105
 -1.1590  -1.1479  -0.7798  -0.7658  -0.6681  -0.6325  -0.6159  -0.6004
 -0.5734  -0.5282  -0.5155  -0.4884  -0.4798  -0.4405  -0.4289  -0.4053

          Ground-State Mulliken Net Atomic Charges

     Atom                 Charge (a.u.)    Spin (a.u.)
  --------------------------------------------------------
      1 C                     0.067757      -0.000342
      2 C                    -0.161554       0.839433
      3 O                    -0.363905       0.081992
      4 O                    -0.362904       0.068968
      5 O                    -0.283925      -0.001229
      6 H                     0.336875      -0.006363
      7 H                     0.340942      -0.002871
      8 H                     0.271314      -0.002840
      9 H                     0.245537       0.005141
     10 O                    -0.448204       0.017940
     11 H                     0.358069       0.000170
  --------------------------------------------------------
  Sum of atomic charges =     0.000000

                    Cartesian Multipole Moments
 -----------------------------------------------------------------
    Charge (ESU x 10^10)
                 0.0000
    Dipole Moment (Debye)
         X       1.1769      Y      -3.1409      Z       0.3707
       Tot       3.3746
    Quadrupole Moments (Debye-Ang)
        XX     -30.5546     XY       1.3310     YY     -41.8563
        XZ      -8.5333     YZ      -2.6007     ZZ     -35.7895

             Standard Nuclear Orientation (Angstroms)
    I     Atom           X                Y                Z
 ----------------------------------------------------------------
    1      C       2.1846777000     0.9027811000    -1.3249809000
    2      C      -0.1591031000    -0.3642855000    -2.5386952000
    3      O       0.2376495000    -1.6726042000    -2.7025111000
    4      O       0.0019772000     0.3772120000    -3.6728694000
    5      O       2.8724641000     0.5098424000    -2.3966387000
    6      H       0.0631989000    -2.1499356000    -1.8818740000
    7      H       0.8797612000     0.2060870000    -4.0417697000
    8      H       2.0838842000     0.0909999000    -0.6028209000
    9      H      -1.1113566000    -0.1912311000    -2.0477713000
   10      O       1.7655028000     2.0250668000    -1.1586363000
   11      H       2.9413161000     1.2522535000    -3.0195787000
 ----------------------------------------------------------------

 Frequency:        33.47                  55.67                  78.82
 Force Cnst:      0.0039                 0.0131                 0.0281
 Red. Mass:       5.9772                 7.1980                 7.6686
 IR Intens:        4.247                  1.011                  0.739
 Frequency:       115.77                 148.01                 159.53
 Force Cnst:      0.0532                 0.0327                 0.0295
 Red. Mass:       6.7423                 2.5307                 1.9661
 IR Intens:        7.497                 15.986                  1.906
 Frequency:       306.05                 408.21                 543.53
 Force Cnst:      0.0621                 0.1093                 0.7456
 Red. Mass:       1.1260                 1.1127                 4.2838
 IR Intens:      174.658                340.826                 53.262
 Frequency:       630.28                 636.52                 885.46
 Force Cnst:      0.4652                 0.4224                 0.6369
 Red. Mass:       1.9876                 1.7695                 1.3788
 IR Intens:      128.974                184.326                 59.329
 Frequency:      1041.99                1061.76                1110.51
 Force Cnst:      1.6126                 1.1404                 2.7494
 Red. Mass:       2.5208                 1.7169                 3.7839
 IR Intens:       98.133                 61.571                588.531
 Frequency:      1112.94                1178.69                1295.58
 Force Cnst:      3.5401                 0.9105                 1.6143
 Red. Mass:       4.8509                 1.1124                 1.6324
 IR Intens:      374.589                 92.764                 14.529
 Frequency:      1348.35                1387.98                1416.86
 Force Cnst:      1.6138                 1.5019                 1.3630
 Red. Mass:       1.5066                 1.3232                 1.1524
 IR Intens:       86.752                 99.250                 13.867
 Frequency:      1720.82                3128.47                3151.27
 Force Cnst:     12.5597                 6.3035                 6.3669
 Red. Mass:       7.1987                 1.0931                 1.0882
 IR Intens:      791.874                 31.963                 31.300
 Frequency:      3727.27                3774.70                3814.07
 Force Cnst:      8.7129                 8.9427                 9.1371
 Red. Mass:       1.0645                 1.0653                 1.0661
 IR Intens:      184.091                150.621                196.932

 STANDARD THERMODYNAMIC QUANTITIES AT   298.15 K  AND     1.00 ATM

   This Molecule has  0 Imaginary Frequencies
   Zero point vibrational energy:       48.995 kcal/mol

   Atom    1 Element C  Has Mass   12.00000
   Atom    2 Element C  Has Mass   12.00000
   Atom    3 Element O  Has Mass   15.99491
   Atom    4 Element O  Has Mass   15.99491
   Atom    5 Element O  Has Mass   15.99491
   Atom    6 Element H  Has Mass    1.00783
   Atom    7 Element H  Has Mass    1.00783
   Atom    8 Element H  Has Mass    1.00783
   Atom    9 Element H  Has Mass    1.00783
   Atom   10 Element O  Has Mass   15.99491
   Atom   11 Element H  Has Mass    1.00783
   Molecular Mass:    93.018790 amu
   Principal axes and moments of inertia in amu*Bohr^2:
                             1           2           3
    Eigenvalues --      340.82315   982.19807  1046.63083
          X               0.65950    -0.63120    -0.40822
          Y               0.62963     0.76051    -0.15872
          Z               0.41064    -0.15236     0.89898
   Rotational Symmetry Number is   1
   The Molecule is an Asymmetric Top
   Translational Enthalpy:        0.889 kcal/mol
   Rotational Enthalpy:           0.889 kcal/mol
   Vibrational Enthalpy:         52.673 kcal/mol
   gas constant (RT):             0.592 kcal/mol
   Translational Entropy:        39.502  cal/mol.K
   Rotational Entropy:           27.351  cal/mol.K
   Vibrational Entropy:          26.779  cal/mol.K

   Total Enthalpy:               55.043 kcal/mol
   Total Entropy:                93.633  cal/mol.K
 Total job time:  4226.18s(wall), 32514.99s(cpu)
        *  Thank you very much for using Q-Chem.  Have a nice day.  *
