 Q-Chem 5.4, Q-Chem, Inc., Pleasanton, CA (2021)
 Q-Chem 5.4.1 for Intel X86 EM64T Linux

User input:
--------------------------------------------------------------
$molecule
0 2
C         2.2386144340    0.7695224873   -1.3971454600
C        -0.2348992047   -0.3391104705   -2.6138848497
O         0.2642667864   -1.6038452992   -2.3562289160
O         0.1488846076    0.1346771311   -3.8403319592
O         2.6912587827    0.7502592036   -2.6630441634
H        -0.0639802103   -1.8719187628   -1.4808095420
H         1.1256378833    0.1233827784   -3.8589805833
H         2.1739516599   -0.2474203550   -0.9965852203
H        -1.2976564883   -0.1855275750   -2.4185166931
O         1.9752392391    1.7800699178   -0.7835938983
H         2.7386546102    1.6760973442   -2.9790248146
$end

$rem
BASIS = 6-311++G(2df,2p)
GUI = 2
JOB_TYPE = Optimization
METHOD = wB97M-V
SCF_ALGORITHM = DIIS_GDM
MAX_SCF_CYCLES = 400
GEOM_OPT_MAX_CYCLES = 150
SCF_CONVERGENCE = 7
THRESH = 12
UNRESTRICTED = 1
Solvent_method = SMD
$end
--------------------------------------------------------------

   17    -380.1015022180      4.91e-08  Convergence criterion met
 Total energy in the final basis set =     -380.0918346120
   16    -380.1022618556      5.47e-08  Convergence criterion met
 Total energy in the final basis set =     -380.0920903035
   15    -380.1025276216      4.04e-08  Convergence criterion met
 Total energy in the final basis set =     -380.0922981324
   15    -380.1023906419      7.52e-08  Convergence criterion met
 Total energy in the final basis set =     -380.0922737355
   15    -380.1026669922      4.60e-08  Convergence criterion met
 Total energy in the final basis set =     -380.0925134850
   15    -380.1026933518      9.38e-08  Convergence criterion met
 Total energy in the final basis set =     -380.0925453277
   15    -380.1027169724      8.83e-08  Convergence criterion met
 Total energy in the final basis set =     -380.0925632263
   15    -380.1027424709      8.60e-08  Convergence criterion met
   15    -380.1026456591      8.62e-08  Convergence criterion met
 Total energy in the final basis set =     -380.0931643541
   15    -380.1026637985      8.26e-08  Convergence criterion met
 Total energy in the final basis set =     -380.0931765455
   15    -380.1026776792      7.42e-08  Convergence criterion met
 Total energy in the final basis set =     -380.0931849789
   15    -380.1026874912      6.86e-08  Convergence criterion met
 Total energy in the final basis set =     -380.0931901867
   15    -380.1026809096      6.80e-08  Convergence criterion met
 Total energy in the final basis set =     -380.0931932448
   15    -380.1026784114      7.22e-08  Convergence criterion met
 Total energy in the final basis set =     -380.0931948578

             Standard Nuclear Orientation (Angstroms)
    I     Atom           X                Y                Z
 ----------------------------------------------------------------
    1      C       2.1846776643     0.9027811254    -1.3249808651
    2      C      -0.1591031083    -0.3642855248    -2.5386951680
    3      O       0.2376495454    -1.6726041595    -2.7025110897
    4      O       0.0019772064     0.3772120449    -3.6728694308
    5      O       2.8724641065     0.5098423771    -2.3966387172
    6      H       0.0631989386    -2.1499356485    -1.8818740040
    7      H       0.8797612444     0.2060870449    -4.0417696932
    8      H       2.0838841904     0.0909999458    -0.6028209184
    9      H      -1.1113565856    -0.1912310650    -2.0477712794
   10      O       1.7655028094     2.0250667627    -1.1586362537
   11      H       2.9413160884     1.2522534969    -3.0195786805
 ----------------------------------------------------------------

   15    -380.1026765048      7.13e-08  Convergence criterion met
 Total energy in the final basis set =     -380.0931952574
 Final energy is   -380.093195257445
 **  OPTIMIZATION CONVERGED  **

                    Orbital Energies (a.u.)
 --------------------------------------------------------------

 Alpha MOs
 -- Occupied --
-19.3864 -19.3651 -19.3646 -19.3371 -10.4844 -10.4346  -1.2475  -1.2202
 -1.1598  -1.1560  -0.7864  -0.7782  -0.6752  -0.6333  -0.6167  -0.6129
 -0.5837  -0.5485  -0.5161  -0.5032  -0.4902  -0.4490  -0.4422  -0.4061
 -0.2639

 Beta MOs
 -- Occupied --
-19.3863 -19.3616 -19.3612 -19.3365 -10.4844 -10.4218  -1.2471  -1.2105
 -1.1590  -1.1479  -0.7799  -0.7658  -0.6681  -0.6325  -0.6160  -0.6004
 -0.5734  -0.5282  -0.5156  -0.4884  -0.4798  -0.4406  -0.4289  -0.4053

          Ground-State Mulliken Net Atomic Charges

     Atom                 Charge (a.u.)    Spin (a.u.)
  --------------------------------------------------------
      1 C                     0.067697      -0.000339
      2 C                    -0.161539       0.839431
      3 O                    -0.363905       0.081993
      4 O                    -0.362902       0.068970
      5 O                    -0.283663      -0.001231
      6 H                     0.336876      -0.006363
      7 H                     0.340949      -0.002872
      8 H                     0.271280      -0.002840
      9 H                     0.245530       0.005142
     10 O                    -0.448146       0.017940
     11 H                     0.357823       0.000170
  --------------------------------------------------------
  Sum of atomic charges =     0.000000

                    Cartesian Multipole Moments
 -----------------------------------------------------------------
    Charge (ESU x 10^10)
                 0.0000
    Dipole Moment (Debye)
         X       1.1768      Y      -3.1409      Z       0.3729
       Tot       3.3748
    Quadrupole Moments (Debye-Ang)
        XX     -30.5539     XY       1.3307     YY     -41.8548
        XZ      -8.5265     YZ      -2.5974     ZZ     -35.8026

 Total job time:  1350.57s(wall), 10421.43s(cpu)
        *  Thank you very much for using Q-Chem.  Have a nice day.  *
