 Q-Chem 5.4, Q-Chem, Inc., Pleasanton, CA (2021)
 Q-Chem 5.4.1 for Intel X86 EM64T Linux

User input:
--------------------------------------------------------------
$molecule
0 3
O        -3.2977800603    4.4726635158    0.5359728662
O        -4.3099042397    3.9291291842    0.1683272338
$end

$rem
BASIS = 6-311++G(2df,2p)
GUI = 2
JOB_TYPE = Optimization
METHOD = wB97M-V
SCF_ALGORITHM = DIIS_GDM
MAX_SCF_CYCLES = 400
GEOM_OPT_MAX_CYCLES = 150
SCF_CONVERGENCE = 7
THRESH = 12
UNRESTRICTED = 1
Solvent_method = SMD
$end
--------------------------------------------------------------

   10    -150.3357995955      7.14e-08  Convergence criterion met
 Total energy in the final basis set =     -150.3357995955
    9    -150.3358673328      1.32e-08  Convergence criterion met
 Total energy in the final basis set =     -150.3358673328

             Standard Nuclear Orientation (Angstroms)
    I     Atom           X                Y                Z
 ----------------------------------------------------------------
    1      O      -3.3016872316     4.4705652735     0.5345536189
    2      O      -4.3059970684     3.9312274265     0.1697464811
 ----------------------------------------------------------------

    7    -150.3359393306      2.89e-08  Convergence criterion met
 Total energy in the final basis set =     -150.3359393306
 Final energy is   -150.335939330597
 **  OPTIMIZATION CONVERGED  **

                    Orbital Energies (a.u.)
 --------------------------------------------------------------

 Alpha MOs
 -- Occupied --
-19.4886 -19.4885  -1.4411  -0.9589  -0.6769  -0.6768  -0.6646  -0.4086
 -0.4086

 Beta MOs
 -- Occupied --
-19.4584 -19.4580  -1.3849  -0.8719  -0.6192  -0.5710  -0.5710

          Ground-State Mulliken Net Atomic Charges

     Atom                 Charge (a.u.)    Spin (a.u.)
  --------------------------------------------------------
      1 O                     0.000000       1.000000
      2 O                    -0.000000       1.000000
  --------------------------------------------------------
  Sum of atomic charges =     0.000000

                    Cartesian Multipole Moments
 -----------------------------------------------------------------
    Charge (ESU x 10^10)
                 0.0000
    Dipole Moment (Debye)
         X       0.0000      Y       0.0000      Z       0.0000
       Tot       0.0000
    Quadrupole Moments (Debye-Ang)
        XX     -10.5424     XY      -0.2046     YY     -10.2711
        XZ      -0.1383     YZ      -0.0742     ZZ     -10.2115

 Total job time:  12.22s(wall), 92.21s(cpu)
        *  Thank you very much for using Q-Chem.  Have a nice day.  *
