 Q-Chem 5.4, Q-Chem, Inc., Pleasanton, CA (2021)
 Q-Chem 5.4.1 for Intel X86 EM64T Linux

User input:
--------------------------------------------------------------
$molecule
-1 2
C         1.4980164545    0.7660547243   -0.1383624944
O         1.8026323618    1.4121745551    0.8766832452
O         1.9798924524    0.8168866210   -1.2928620119
C         0.3676719600   -0.2762671958    0.0083766160
O        -0.0592124773   -0.7989272362   -1.1237456197
O        -0.4187979559   -0.3089060280    1.0215964248
H         0.0738809553   -1.0384616266    1.7114023966
O         1.5892850633   -1.6572546214    0.7212176276
O         1.0518619496   -1.9085083887    1.8610669549
H         0.5714289363   -0.4987389036   -1.8095437390
$end

$rem
BASIS = def2-TZVPPD
JOB_TYPE = SP
METHOD = wB97M-V
SCF_ALGORITHM = DIIS_GDM
MAX_SCF_CYCLES = 400
SCF_CONVERGENCE = 7
THRESH = 12
Solvent_method = SMD
$end
--------------------------------------------------------------

             Standard Nuclear Orientation (Angstroms)
    I     Atom           X                Y                Z
 ----------------------------------------------------------------
    1      C       1.4980164545     0.7660547243    -0.1383624944
    2      O       1.8026323618     1.4121745551     0.8766832452
    3      O       1.9798924524     0.8168866210    -1.2928620119
    4      C       0.3676719600    -0.2762671958     0.0083766160
    5      O      -0.0592124773    -0.7989272362    -1.1237456197
    6      O      -0.4187979559    -0.3089060280     1.0215964248
    7      H       0.0738809553    -1.0384616266     1.7114023966
    8      O       1.5892850633    -1.6572546214     0.7212176276
    9      O       1.0518619496    -1.9085083887     1.8610669549
   10      H       0.5714289363    -0.4987389036    -1.8095437390
 ----------------------------------------------------------------

   22    -528.9038979108      5.19e-08  Convergence criterion met
 Total energy in the final basis set =     -528.8967347160

                    Orbital Energies (a.u.)
 --------------------------------------------------------------

 Alpha MOs
 -- Occupied --
-19.4265 -19.4230 -19.3840 -19.3524 -19.3014 -19.2984 -10.5092 -10.4580
 -1.3359  -1.2544  -1.1821  -1.1764  -1.0981  -0.9482  -0.7891  -0.7315
 -0.6965  -0.6207  -0.6086  -0.6036  -0.5991  -0.5481  -0.5426  -0.5256
 -0.5089  -0.4796  -0.4583  -0.3945  -0.3847  -0.3826  -0.3738  -0.3601

 Beta MOs
 -- Occupied --
-19.4108 -19.4083 -19.3841 -19.3525 -19.3014 -19.2984 -10.5095 -10.4580
 -1.3091  -1.2525  -1.1820  -1.1761  -1.0981  -0.9080  -0.7869  -0.7302
 -0.6910  -0.6189  -0.6029  -0.5797  -0.5483  -0.5400  -0.5331  -0.5176
 -0.4995  -0.4737  -0.4566  -0.3860  -0.3819  -0.3740  -0.3499

          Ground-State Mulliken Net Atomic Charges

     Atom                 Charge (a.u.)    Spin (a.u.)
  --------------------------------------------------------
      1 C                     0.732819      -0.001189
      2 O                    -0.800770       0.000548
      3 O                    -0.830646       0.000069
      4 C                     0.821426      -0.005460
      5 O                    -0.453892      -0.004931
      6 O                    -0.636080      -0.002072
      7 H                     0.330064      -0.014591
      8 O                    -0.228953       0.523365
      9 O                    -0.216882       0.504578
     10 H                     0.282913      -0.000317
  --------------------------------------------------------
  Sum of atomic charges =    -1.000000

                    Cartesian Multipole Moments
 -----------------------------------------------------------------
    Charge (ESU x 10^10)
                -4.8032
    Dipole Moment (Debye)
         X      -8.3424      Y      -2.9214      Z      -2.3195
       Tot       9.1383
    Quadrupole Moments (Debye-Ang)
        XX     -68.6059     XY      -8.0958     YY     -59.8063
        XZ      -1.3648     YZ       1.2654     ZZ     -52.7982

 Total job time:  435.37s(wall), 1732.43s(cpu)
        *  Thank you very much for using Q-Chem.  Have a nice day.  *
