 Q-Chem 5.4, Q-Chem, Inc., Pleasanton, CA (2021)
 Q-Chem 5.4.1 for Intel X86 EM64T Linux

User input:
--------------------------------------------------------------
$molecule
0 2
C         1.5036105769   -0.3383289846   -0.4335286606
O         2.2165813818   -1.0242922796   -1.4648281166
C         0.0492082634   -0.2045719189   -0.7687419707
O        -0.6126610145   -1.4037550404   -0.6931453361
O        -0.1768043156    0.5690594324   -1.8791873923
O         2.1093308600    0.9124581407   -0.2759887187
H         1.6103507342   -0.8757690175    0.5076050421
H         1.8786143165   -1.9266893009   -1.5183130331
H        -1.5193823678   -1.3032321333   -1.0112661923
H        -1.1133938933    0.7959407260   -1.9431540541
H         1.8423708583    1.4737665757   -1.0155214674
$end

$rem
BASIS = 6-311++G(2df,2p)
GUI = 2
JOB_TYPE = Frequency
METHOD = wB97M-V
SOLVENT_METHOD = SMD
SCF_ALGORITHM = DIIS_GDM
MAX_SCF_CYCLES = 400
SCF_CONVERGENCE = 7
THRESH = 12
UNRESTRICTED = 1
SYMMETRY_IGNORE = 1
$end
--------------------------------------------------------------

   15    -380.1019240505      7.52e-08  Convergence criterion met
 Total energy in the final basis set =     -380.0959170554
   13    -380.1019279356      9.02e-08  Convergence criterion met
 Total energy in the final basis set =     -380.0959159432
   13    -380.1019184360      8.22e-08  Convergence criterion met
 Total energy in the final basis set =     -380.0959163772
   13    -380.1019307294      8.90e-08  Convergence criterion met
 Total energy in the final basis set =     -380.0959160889
   13    -380.1019155326      8.83e-08  Convergence criterion met
 Total energy in the final basis set =     -380.0959159227
   13    -380.1019249429      8.65e-08  Convergence criterion met
 Total energy in the final basis set =     -380.0959161820
   13    -380.1019211525      8.82e-08  Convergence criterion met
 Total energy in the final basis set =     -380.0959159184
   13    -380.1019236055      8.60e-08  Convergence criterion met
 Total energy in the final basis set =     -380.0959170424
   13    -380.1019244780      8.84e-08  Convergence criterion met
 Total energy in the final basis set =     -380.0959169310
   13    -380.1019241456      8.72e-08  Convergence criterion met
 Total energy in the final basis set =     -380.0959168229
   13    -380.1019237513      8.73e-08  Convergence criterion met
 Total energy in the final basis set =     -380.0959170835
   13    -380.1019245711      8.74e-08  Convergence criterion met
 Total energy in the final basis set =     -380.0959167569
   13    -380.1019227559      8.73e-08  Convergence criterion met
 Total energy in the final basis set =     -380.0959165801
   13    -380.1019231749      8.73e-08  Convergence criterion met
 Total energy in the final basis set =     -380.0959164382
   13    -380.1019238421      8.75e-08  Convergence criterion met
 Total energy in the final basis set =     -380.0959165885

                    Orbital Energies (a.u.)
 --------------------------------------------------------------

 Alpha MOs
 -- Occupied --
-19.3705 -19.3693 -19.3504 -19.3432 -10.4509 -10.4463  -1.2335  -1.1969
 -1.1618  -1.1350  -0.8565  -0.7503  -0.6915  -0.6480  -0.6361  -0.5865
 -0.5784  -0.5389  -0.5103  -0.4867  -0.4826  -0.4439  -0.4287  -0.4034
 -0.2765

 Beta MOs
 -- Occupied --
-19.3668 -19.3664 -19.3502 -19.3420 -10.4508 -10.4333  -1.2251  -1.1941
 -1.1539  -1.1330  -0.8448  -0.7446  -0.6850  -0.6431  -0.6287  -0.5761
 -0.5645  -0.5250  -0.4952  -0.4846  -0.4727  -0.4332  -0.4254  -0.3982

          Ground-State Mulliken Net Atomic Charges

     Atom                 Charge (a.u.)    Spin (a.u.)
  --------------------------------------------------------
      1 C                    -0.016405      -0.045559
      2 O                    -0.454217       0.033069
      3 C                     0.004195       0.874725
      4 O                    -0.361633       0.084811
      5 O                    -0.377147       0.059767
      6 O                    -0.422543       0.001847
      7 H                     0.258489       0.001330
      8 H                     0.322965      -0.000165
      9 H                     0.355859      -0.004757
     10 H                     0.365196      -0.003934
     11 H                     0.325241      -0.001133
  --------------------------------------------------------
  Sum of atomic charges =     0.000000

                    Cartesian Multipole Moments
 -----------------------------------------------------------------
    Charge (ESU x 10^10)
                 0.0000
    Dipole Moment (Debye)
         X      -5.9213      Y      -0.8508      Z      -1.0047
       Tot       6.0659
    Quadrupole Moments (Debye-Ang)
        XX     -39.9814     XY      -2.0038     YY     -31.5949
        XZ       8.1237     YZ      -1.2688     ZZ     -36.8716

             Standard Nuclear Orientation (Angstroms)
    I     Atom           X                Y                Z
 ----------------------------------------------------------------
    1      C       1.5036105769    -0.3383289846    -0.4335286606
    2      O       2.2165813818    -1.0242922796    -1.4648281166
    3      C       0.0492082634    -0.2045719189    -0.7687419707
    4      O      -0.6126610145    -1.4037550404    -0.6931453361
    5      O      -0.1768043156     0.5690594324    -1.8791873923
    6      O       2.1093308600     0.9124581407    -0.2759887187
    7      H       1.6103507342    -0.8757690175     0.5076050421
    8      H       1.8786143165    -1.9266893009    -1.5183130331
    9      H      -1.5193823678    -1.3032321333    -1.0112661923
   10      H      -1.1133938933     0.7959407260    -1.9431540541
   11      H       1.8423708583     1.4737665757    -1.0155214674
 ----------------------------------------------------------------

 Frequency:        84.29                 147.73                 176.34
 Force Cnst:      0.0252                 0.0141                 0.0197
 Red. Mass:       6.0122                 1.0936                 1.0746
 IR Intens:        7.732                207.618                 44.415
 Frequency:       227.99                 251.33                 329.27
 Force Cnst:      0.1014                 0.1719                 0.0824
 Red. Mass:       3.3116                 4.6176                 1.2905
 IR Intens:       40.619                  8.154                416.584
 Frequency:       351.72                 438.98                 537.03
 Force Cnst:      0.0855                 0.7637                 0.8588
 Red. Mass:       1.1730                 6.7266                 5.0539
 IR Intens:      148.215                 63.065                 39.284
 Frequency:       601.26                 716.85                 849.71
 Force Cnst:      1.2776                 1.6702                 2.0009
 Red. Mass:       5.9981                 5.5165                 4.7037
 IR Intens:       28.470                 57.539                 85.298
 Frequency:       979.73                1127.27                1147.79
 Force Cnst:      4.0509                 2.1564                 1.4129
 Red. Mass:       7.1629                 2.8803                 1.8202
 IR Intens:      216.145                429.792                130.395
 Frequency:      1158.98                1177.35                1232.14
 Force Cnst:      1.9527                 0.9566                 1.3182
 Red. Mass:       2.4674                 1.1713                 1.4737
 IR Intens:      317.564                 78.970                371.858
 Frequency:      1358.99                1386.59                1415.82
 Force Cnst:      1.4396                 1.5953                 1.7919
 Red. Mass:       1.3230                 1.4083                 1.5172
 IR Intens:       47.500                 18.482                 31.294
 Frequency:      1489.15                3108.54                3789.38
 Force Cnst:      2.8272                 6.1913                 9.0188
 Red. Mass:       2.1639                 1.0875                 1.0660
 IR Intens:       46.452                 39.286                121.746
 Frequency:      3791.30                3795.47                3812.49
 Force Cnst:      9.0331                 9.0505                 9.1296
 Red. Mass:       1.0666                 1.0663                 1.0661
 IR Intens:       60.489                361.972                124.121

 STANDARD THERMODYNAMIC QUANTITIES AT   298.15 K  AND     1.00 ATM

   This Molecule has  0 Imaginary Frequencies
   Zero point vibrational energy:       50.726 kcal/mol

   Atom    1 Element C  Has Mass   12.00000
   Atom    2 Element O  Has Mass   15.99491
   Atom    3 Element C  Has Mass   12.00000
   Atom    4 Element O  Has Mass   15.99491
   Atom    5 Element O  Has Mass   15.99491
   Atom    6 Element O  Has Mass   15.99491
   Atom    7 Element H  Has Mass    1.00783
   Atom    8 Element H  Has Mass    1.00783
   Atom    9 Element H  Has Mass    1.00783
   Atom   10 Element H  Has Mass    1.00783
   Atom   11 Element H  Has Mass    1.00783
   Molecular Mass:    93.018790 amu
   Principal axes and moments of inertia in amu*Bohr^2:
                             1           2           3
    Eigenvalues --      347.62710   606.21519   735.51445
          X               0.95196    -0.25259    -0.17313
          Y               0.26732     0.96124     0.06746
          Z               0.14938    -0.11050     0.98259
   Rotational Symmetry Number is   1
   The Molecule is an Asymmetric Top
   Translational Enthalpy:        0.889 kcal/mol
   Rotational Enthalpy:           0.889 kcal/mol
   Vibrational Enthalpy:         53.691 kcal/mol
   gas constant (RT):             0.592 kcal/mol
   Translational Entropy:        39.502  cal/mol.K
   Rotational Entropy:           26.541  cal/mol.K
   Vibrational Entropy:          17.609  cal/mol.K

   Total Enthalpy:               56.061 kcal/mol
   Total Entropy:                83.652  cal/mol.K
 Total job time:  6048.78s(wall), 39378.42s(cpu)
        *  Thank you very much for using Q-Chem.  Have a nice day.  *
