 Q-Chem 5.4, Q-Chem, Inc., Pleasanton, CA (2021)
 Q-Chem 5.4.1 for Intel X86 EM64T Linux

User input:
--------------------------------------------------------------
$molecule
0 2
C         1.5140808606   -0.3310019167   -0.4039296451
O         2.2143203627   -1.0633506176   -1.4116709268
C         0.0541742247   -0.2190952607   -0.7405196452
O        -0.5794617893   -1.4439020096   -0.6980112260
O        -0.1590336096    0.5536996918   -1.8651518099
O         2.1056162120    0.9350456122   -0.3174902141
H         1.6378506417   -0.8165580103    0.5698282413
H         1.7280288954   -1.8957607851   -1.5415086132
H        -1.4421559703   -1.3625216030   -1.1420361946
H        -1.0748982025    0.8827939877   -1.8541283217
H         1.7893037746    1.4352371110   -1.0914515445
$end

$rem
BASIS = 6-311++G(2df,2p)
GUI = 2
JOB_TYPE = Optimization
METHOD = wB97M-V
SCF_ALGORITHM = DIIS_GDM
MAX_SCF_CYCLES = 400
GEOM_OPT_MAX_CYCLES = 150
SCF_CONVERGENCE = 7
THRESH = 12
Solvent_method = SMD
$end
--------------------------------------------------------------

   15    -380.1008673014      3.98e-08  Convergence criterion met
 Total energy in the final basis set =     -380.0950816789
   13    -380.1016194458      6.06e-08  Convergence criterion met
 Total energy in the final basis set =     -380.0957027914
   13    -380.1017893598      9.92e-08  Convergence criterion met
 Total energy in the final basis set =     -380.0957915356
   13    -380.1018665148      9.33e-08  Convergence criterion met
 Total energy in the final basis set =     -380.0958426784
   14    -380.1019071078      5.99e-08  Convergence criterion met
 Total energy in the final basis set =     -380.0958823580
   14    -380.1019058158      5.88e-08  Convergence criterion met
 Total energy in the final basis set =     -380.0958996670
   13    -380.1019043440      9.84e-08  Convergence criterion met
 Total energy in the final basis set =     -380.0959110873
   13    -380.1019106014      8.69e-08  Convergence criterion met
 Total energy in the final basis set =     -380.0959147582
   13    -380.1019194610      7.89e-08  Convergence criterion met
 Total energy in the final basis set =     -380.0959164599

             Standard Nuclear Orientation (Angstroms)
    I     Atom           X                Y                Z
 ----------------------------------------------------------------
    1      C       1.5036105769    -0.3383289846    -0.4335286606
    2      O       2.2165813818    -1.0242922796    -1.4648281166
    3      C       0.0492082634    -0.2045719189    -0.7687419707
    4      O      -0.6126610145    -1.4037550404    -0.6931453361
    5      O      -0.1768043156     0.5690594324    -1.8791873923
    6      O       2.1093308600     0.9124581407    -0.2759887187
    7      H       1.6103507342    -0.8757690175     0.5076050421
    8      H       1.8786143165    -1.9266893009    -1.5183130331
    9      H      -1.5193823678    -1.3032321333    -1.0112661923
   10      H      -1.1133938933     0.7959407260    -1.9431540541
   11      H       1.8423708583     1.4737665757    -1.0155214674
 ----------------------------------------------------------------

   13    -380.1019240504      8.01e-08  Convergence criterion met
 Total energy in the final basis set =     -380.0959170554
 Final energy is   -380.095917055351
 **  OPTIMIZATION CONVERGED  **

                    Orbital Energies (a.u.)
 --------------------------------------------------------------

 Alpha MOs
 -- Occupied --
-19.3705 -19.3693 -19.3503 -19.3432 -10.4509 -10.4463  -1.2335  -1.1970
 -1.1618  -1.1350  -0.8565  -0.7504  -0.6915  -0.6480  -0.6361  -0.5865
 -0.5784  -0.5389  -0.5103  -0.4867  -0.4826  -0.4439  -0.4288  -0.4034
 -0.2765

 Beta MOs
 -- Occupied --
-19.3668 -19.3664 -19.3501 -19.3420 -10.4508 -10.4333  -1.2252  -1.1941
 -1.1539  -1.1331  -0.8448  -0.7447  -0.6850  -0.6431  -0.6287  -0.5761
 -0.5645  -0.5250  -0.4952  -0.4846  -0.4727  -0.4332  -0.4254  -0.3982

          Ground-State Mulliken Net Atomic Charges

     Atom                 Charge (a.u.)    Spin (a.u.)
  --------------------------------------------------------
      1 C                    -0.016508      -0.045560
      2 O                    -0.454205       0.033069
      3 C                     0.004281       0.874722
      4 O                    -0.361631       0.084811
      5 O                    -0.377134       0.059770
      6 O                    -0.422358       0.001850
      7 H                     0.258495       0.001330
      8 H                     0.322965      -0.000165
      9 H                     0.355865      -0.004756
     10 H                     0.365190      -0.003934
     11 H                     0.325040      -0.001137
  --------------------------------------------------------
  Sum of atomic charges =     0.000000

                    Cartesian Multipole Moments
 -----------------------------------------------------------------
    Charge (ESU x 10^10)
                 0.0000
    Dipole Moment (Debye)
         X      -5.9215      Y      -0.8507      Z      -1.0032
       Tot       6.0659
    Quadrupole Moments (Debye-Ang)
        XX     -39.9816     XY      -2.0039     YY     -31.5933
        XZ       8.1265     YZ      -1.2661     ZZ     -36.8750

 Total job time:  675.60s(wall), 5201.25s(cpu)
        *  Thank you very much for using Q-Chem.  Have a nice day.  *
