 Q-Chem 5.4, Q-Chem, Inc., Pleasanton, CA (2021)
 Q-Chem 5.4.1 for Intel X86 EM64T Linux

User input:
--------------------------------------------------------------
$molecule
0 2
C        -0.7810584394   -1.0313684003   -0.0130717950
O        -0.6171866242   -1.7992946399    0.9987064448
O        -1.9573646450   -1.0882447582   -0.6271257013
O        -0.8811540911    0.6028206347    0.9991739583
O        -0.7509082308    0.1715181256    2.2029674936
H        -0.6227170061   -1.0426385845    1.8744591052
H        -1.9241926953   -0.5886526155   -1.4554772085
H         0.0624558320   -0.6954249620   -0.6094695970
$end

$rem
BASIS = 6-311++G(2df,2p)
GUI = 2
JOB_TYPE = Frequency
METHOD = wB97M-V
SOLVENT_METHOD = SMD
SCF_ALGORITHM = DIIS_GDM
MAX_SCF_CYCLES = 400
SCF_CONVERGENCE = 7
THRESH = 12
$end

--------------------------------------------------------------

   20    -340.7004383860      6.26e-08  Convergence criterion met
 Total energy in the final basis set =     -340.6957896051
   19    -340.7004331208      5.56e-08  Convergence criterion met
 Total energy in the final basis set =     -340.6957883774
   19    -340.7004413601      3.40e-08  Convergence criterion met
 Total energy in the final basis set =     -340.6957885980
   19    -340.7004333779      5.19e-08  Convergence criterion met
 Total energy in the final basis set =     -340.6957892156
   19    -340.7004424454      4.58e-08  Convergence criterion met
 Total energy in the final basis set =     -340.6957890663
   19    -340.7004368039      3.46e-08  Convergence criterion met
 Total energy in the final basis set =     -340.6957885091
   19    -340.7004376465      5.40e-08  Convergence criterion met
 Total energy in the final basis set =     -340.6957884244
   19    -340.7004370775      3.60e-08  Convergence criterion met
 Frequency:      -961.33                 119.12                 269.22
 Force Cnst:      0.7633                 0.0744                 0.3031
 Red. Mass:       1.4018                 8.8982                 7.0981
 IR Intens:      750.872                 10.490                214.106
 Frequency:       475.83                 485.93                 597.67
 Force Cnst:      0.5354                 0.1825                 1.0788
 Red. Mass:       4.0136                 1.3116                 5.1260
 IR Intens:      396.099                408.492                 10.434
 Frequency:       681.85                 789.29                 996.88
 Force Cnst:      1.4507                 1.6171                 0.6334
 Red. Mass:       5.2959                 4.4057                 1.0818
 IR Intens:       36.234                194.485                129.714
 Frequency:      1108.18                1154.47                1249.25
 Force Cnst:      1.3890                 1.2242                 1.7760
 Red. Mass:       1.9196                 1.5590                 1.9315
 IR Intens:      587.165                 40.354                554.181
 Frequency:      1342.50                1353.15                1552.34
 Force Cnst:     13.9094                 1.4228                 3.4758
 Red. Mass:      13.0988                 1.3189                 2.4481
 IR Intens:       34.727                105.555                474.864
 Frequency:      1883.98                3161.50                3778.03
 Force Cnst:      2.1977                 6.4402                 8.9658
 Red. Mass:       1.0509                 1.0936                 1.0661
 IR Intens:      118.179                 20.891                274.632

 STANDARD THERMODYNAMIC QUANTITIES AT   298.15 K  AND     1.00 ATM

   This Molecule has  1 Imaginary Frequencies
   Zero point vibrational energy:       30.020 kcal/mol

   Atom    1 Element C  Has Mass   12.00000
   Atom    2 Element O  Has Mass   15.99491
   Atom    3 Element O  Has Mass   15.99491
   Atom    4 Element O  Has Mass   15.99491
   Atom    5 Element O  Has Mass   15.99491
   Atom    6 Element H  Has Mass    1.00783
   Atom    7 Element H  Has Mass    1.00783
   Atom    8 Element H  Has Mass    1.00783
   Molecular Mass:    79.003130 amu
   Principal axes and moments of inertia in amu*Bohr^2:
                             1           2           3
    Eigenvalues --      185.19634   430.22841   555.01420
          X               0.26898    -0.37783     0.88594
          Y               0.53634     0.82278     0.18806
          Z               0.79999    -0.42458    -0.42396
   Rotational Symmetry Number is   1
   The Molecule is an Asymmetric Top
   Translational Enthalpy:        0.889 kcal/mol
   Rotational Enthalpy:           0.889 kcal/mol
   Vibrational Enthalpy:         31.349 kcal/mol
   gas constant (RT):             0.592 kcal/mol
   Translational Entropy:        39.015  cal/mol.K
   Rotational Entropy:           25.295  cal/mol.K
   Vibrational Entropy:           7.425  cal/mol.K

   Total Enthalpy:               33.719 kcal/mol
   Total Entropy:                71.735  cal/mol.K
 Total job time:  2154.84s(wall), 16742.35s(cpu)
        *  Thank you very much for using Q-Chem.  Have a nice day.  *
 Q-Chem 5.4, Q-Chem, Inc., Pleasanton, CA (2021)
 Q-Chem 5.4.1 for Intel X86 EM64T Linux

User input:
--------------------------------------------------------------

$molecule
read
$end

$rem
JOBTYPE            rpath
SCF_GUESS          read
RPATH_MAX_CYCLES   30
BASIS = 6-311++G(2df,2p)
METHOD = wB97M-V
SOLVENT_METHOD = SMD
SCF_ALGORITHM = DIIS_GDM
SCF_CONVERGENCE = 7
THRESH = 12
$end
--------------------------------------------------------------

 Total energy in the final basis set =     -340.7090176874
   18    -340.7111903732      7.56e-08  Convergence criterion met
 Total energy in the final basis set =     -340.7075802088
   18    -340.7127960710      3.31e-08  Convergence criterion met
 Total energy in the final basis set =     -340.7091970922
   17    -340.7127511221      6.98e-08  Convergence criterion met
 Total energy in the final basis set =     -340.7091611785
   18    -340.7128319053      4.09e-08  Convergence criterion met
 Total energy in the final basis set =     -340.7092365002
   18    -340.7129169394      3.28e-08  Convergence criterion met
 Total energy in the final basis set =     -340.7094219896
   17    -340.7119124865      9.55e-08  Convergence criterion met
 Total energy in the final basis set =     -340.7083163265
   18    -340.7133637074      4.23e-08  Convergence criterion met
 Total energy in the final basis set =     -340.7098310886

                    Orbital Energies (a.u.)
 --------------------------------------------------------------

 Alpha MOs
 -- Occupied --
-19.4681 -19.4307 -19.3690 -19.3615 -10.5136  -1.3610  -1.2310  -1.1670
 -1.0030  -0.7895  -0.7123  -0.6945  -0.6369  -0.6166  -0.5970  -0.5121
 -0.5072  -0.4805  -0.4399  -0.4048  -0.4007

 Beta MOs
 -- Occupied --
-19.4567 -19.4124 -19.3686 -19.3616 -10.5140  -1.3356  -1.2279  -1.1666
 -0.9679  -0.7829  -0.7028  -0.6860  -0.6289  -0.5870  -0.5463  -0.5068
 -0.4958  -0.4729  -0.4331  -0.3899

          Ground-State Mulliken Net Atomic Charges

     Atom                 Charge (a.u.)    Spin (a.u.)
  --------------------------------------------------------
      1 C                     0.110119      -0.012444
      2 O                    -0.435516      -0.001072
      3 O                    -0.376137       0.013259
      4 O                    -0.049487       0.346318
      5 O                    -0.181302       0.653050
      6 H                     0.326617      -0.004063
      7 H                     0.339087      -0.001126
      8 H                     0.266619       0.006078
  --------------------------------------------------------
  Sum of atomic charges =     0.000000

                    Cartesian Multipole Moments
 -----------------------------------------------------------------
    Charge (ESU x 10^10)
                -0.0000
    Dipole Moment (Debye)
         X       1.3537      Y       0.8418      Z      -3.1062
       Tot       3.4914
    Quadrupole Moments (Debye-Ang)
        XX     -32.2413     XY      -2.4102     YY     -36.2617
        XZ       3.9147     YZ      -1.1818     ZZ     -25.4428

             Standard Nuclear Orientation (Angstroms)
    I     Atom           X                Y                Z
 ----------------------------------------------------------------
    1      C      -0.7810584394    -1.0313684003    -0.0130717950
    2      O      -0.6171866242    -1.7992946399     0.9987064448
    3      O      -1.9573646450    -1.0882447582    -0.6271257013
    4      O      -0.8811540911     0.6028206347     0.9991739583
    5      O      -0.7509082308     0.1715181256     2.2029674936
    6      H      -0.6227170061    -1.0426385845     1.8744591052
    7      H      -1.9241926953    -0.5886526155    -1.4554772085
    8      H       0.0624558320    -0.6954249620    -0.6094695970
 ----------------------------------------------------------------

 Total job time:  2936.70s(wall), 22798.45s(cpu)
        *  Thank you very much for using Q-Chem.  Have a nice day.  *
