 Q-Chem 5.4, Q-Chem, Inc., Pleasanton, CA (2021)
 Q-Chem 5.4.1 for Intel X86 EM64T Linux

User input:
--------------------------------------------------------------
$molecule
0 2
C   -0.7702383   -0.8221058    0.0464034
O   -0.5724227   -1.7593505    1.0440470
O   -1.9409752   -1.1285395   -0.6561610
O   -0.9211412    0.4865852    0.8502196
O   -0.7823546    0.1126125    2.1082585
H   -0.6125548   -1.0870539    1.9978956
H   -1.9933078   -0.4751257   -1.4013049
H    0.1208687   -0.7983075   -0.6191955
$end

$rem
BASIS = 6-311++G(2df,2p)
GUI = 2
JOB_TYPE = Frequency
METHOD = wB97M-V
SCF_ALGORITHM = DIIS_GDM
MAX_SCF_CYCLES = 400
SCF_CONVERGENCE = 6
THRESH = 11
solvent_method = SMD
$end

--------------------------------------------------------------

   19    -340.6756725826      5.64e-07  Convergence criterion met
 Total energy in the final basis set =     -340.6728398506
   16    -340.6756886223      9.38e-07  Convergence criterion met
 Total energy in the final basis set =     -340.6728593881
   16    -340.6756546717      9.54e-07  Convergence criterion met
 Total energy in the final basis set =     -340.6728181993
   16    -340.6755364597      9.26e-07  Convergence criterion met
 Total energy in the final basis set =     -340.6727134641
   16    -340.6758077784      9.57e-07  Convergence criterion met
 Total energy in the final basis set =     -340.6729652862
   16    -340.6757057582      9.23e-07  Convergence criterion met
 Total energy in the final basis set =     -340.6728700322
   16    -340.6756375579      9.75e-07  Convergence criterion met
 Total energy in the final basis set =     -340.6728077199
   16    -340.6756648449      9.38e-07  Convergence criterion met
 Frequency:      -701.25                 221.77                 408.36
 Force Cnst:      0.3881                 0.2958                 0.6784
 Red. Mass:       1.3394                10.2097                 6.9048
 IR Intens:      864.372                  1.575                 45.757
 Frequency:       597.85                 679.13                 718.32
 Force Cnst:      1.2938                 0.3284                 1.9578
 Red. Mass:       6.1439                 1.2084                 6.4399
 IR Intens:       22.476                251.841                232.109
 Frequency:       815.40                 863.25                 989.24
 Force Cnst:      2.0051                 3.6840                 0.6400
 Red. Mass:       5.1186                 8.3907                 1.1100
 IR Intens:      316.984                 87.593                173.439
 Frequency:      1081.52                1173.01                1195.49
 Force Cnst:      1.9247                 6.5744                 4.2795
 Red. Mass:       2.7928                 8.1096                 5.0821
 IR Intens:      357.252                 86.406                399.509
 Frequency:      1305.85                1351.18                1457.01
 Force Cnst:      1.2938                 1.2710                 1.6748
 Red. Mass:       1.2877                 1.1816                 1.3390
 IR Intens:      131.278                246.514                 98.800
 Frequency:      1929.36                2923.17                3466.24
 Force Cnst:      2.2605                 5.4827                 7.5415
 Red. Mass:       1.0307                 1.0890                 1.0653
 IR Intens:      190.738                 26.116                172.197

 STANDARD THERMODYNAMIC QUANTITIES AT   298.15 K  AND     1.00 ATM

   This Molecule has  1 Imaginary Frequencies
   Zero point vibrational energy:       30.273 kcal/mol

   Atom    1 Element C  Has Mass   12.00000
   Atom    2 Element O  Has Mass   15.99491
   Atom    3 Element O  Has Mass   15.99491
   Atom    4 Element O  Has Mass   15.99491
   Atom    5 Element O  Has Mass   15.99491
   Atom    6 Element H  Has Mass    1.00783
   Atom    7 Element H  Has Mass    1.00783
   Atom    8 Element H  Has Mass    1.00783
   Molecular Mass:    79.003130 amu
   Principal axes and moments of inertia in amu*Bohr^2:
                             1           2           3
    Eigenvalues --      182.54330   388.35010   509.16451
          X               0.30190    -0.34426     0.88901
          Y               0.46448     0.86747     0.17819
          Z               0.83254    -0.35913    -0.42179
   Rotational Symmetry Number is   1
   The Molecule is an Asymmetric Top
   Translational Enthalpy:        0.889 kcal/mol
   Rotational Enthalpy:           0.889 kcal/mol
   Vibrational Enthalpy:         31.202 kcal/mol
   gas constant (RT):             0.592 kcal/mol
   Translational Entropy:        39.015  cal/mol.K
   Rotational Entropy:           25.093  cal/mol.K
   Vibrational Entropy:           4.622  cal/mol.K

   Total Enthalpy:               33.572 kcal/mol
   Total Entropy:                68.730  cal/mol.K
 Total job time:  1321.12s(wall), 19821.73s(cpu)
        *  Thank you very much for using Q-Chem.  Have a nice day.  *
 Q-Chem 5.4, Q-Chem, Inc., Pleasanton, CA (2021)
 Q-Chem 5.4.1 for Intel X86 EM64T Linux

User input:
--------------------------------------------------------------

$rem
JOBTYPE = ts
SCF_GUESS = read
GEOM_OPT_HESSIAN = read
MAX_SCF_CYCLES = 350
GEOM_OPT_DMAX = 60
GEOM_OPT_MAX_CYCLES = 250
METHOD = wB97M-v
BASIS = 6-311++G(2df,2p)
SCF_CONVERGENCE = 7
THRESH = 12
SCF_ALGORITHM = DIIS_GDM
solvent_method = SMD
$end

$molecule
read
$end
--------------------------------------------------------------

   18    -340.6995277705      5.40e-08  Convergence criterion met
 Total energy in the final basis set =     -340.6950840152
   18    -340.6998353138      7.70e-08  Convergence criterion met
 Total energy in the final basis set =     -340.6953460519
   18    -340.7000761321      9.96e-08  Convergence criterion met
 Total energy in the final basis set =     -340.6955438072
   19    -340.7002538708      2.51e-08  Convergence criterion met
 Total energy in the final basis set =     -340.6956808911
   19    -340.7003723299      2.61e-08  Convergence criterion met
 Total energy in the final basis set =     -340.6957610276
   19    -340.7004354234      2.86e-08  Convergence criterion met
 Total energy in the final basis set =     -340.6957887678

             Standard Nuclear Orientation (Angstroms)
    I     Atom           X                Y                Z
 ----------------------------------------------------------------
    1      C      -0.7810584394    -1.0313684003    -0.0130717950
    2      O      -0.6171866242    -1.7992946399     0.9987064448
    3      O      -1.9573646450    -1.0882447582    -0.6271257013
    4      O      -0.8811540911     0.6028206347     0.9991739583
    5      O      -0.7509082308     0.1715181256     2.2029674936
    6      H      -0.6227170061    -1.0426385845     1.8744591052
    7      H      -1.9241926953    -0.5886526155    -1.4554772085
    8      H       0.0624558320    -0.6954249620    -0.6094695970
 ----------------------------------------------------------------

   19    -340.7004383861      3.50e-08  Convergence criterion met
 Total energy in the final basis set =     -340.6957896053
 Final energy is   -340.695789605268
 **  OPTIMIZATION CONVERGED  **

                    Orbital Energies (a.u.)
 --------------------------------------------------------------

 Alpha MOs
 -- Occupied --
-19.4368 -19.4342 -19.3893 -19.3509 -10.5105  -1.3487  -1.2501  -1.1734
 -0.9617  -0.7753  -0.7153  -0.6947  -0.6167  -0.6147  -0.6019  -0.5303
 -0.5090  -0.4788  -0.4341  -0.3938  -0.3886

 Beta MOs
 -- Occupied --
-19.4209 -19.4196 -19.3894 -19.3511 -10.5108  -1.3215  -1.2486  -1.1730
 -0.9215  -0.7736  -0.7098  -0.6908  -0.6098  -0.5855  -0.5408  -0.5148
 -0.5061  -0.4726  -0.4305  -0.3728

          Ground-State Mulliken Net Atomic Charges

     Atom                 Charge (a.u.)    Spin (a.u.)
  --------------------------------------------------------
      1 C                     0.107527      -0.021529
      2 O                    -0.481384      -0.001530
      3 O                    -0.298730       0.000681
      4 O                    -0.158242       0.536697
      5 O                    -0.160457       0.493386
      6 H                     0.360606      -0.008347
      7 H                     0.344368      -0.000406
      8 H                     0.286313       0.001048
  --------------------------------------------------------
  Sum of atomic charges =    -0.000000

                    Cartesian Multipole Moments
 -----------------------------------------------------------------
    Charge (ESU x 10^10)
                 0.0000
    Dipole Moment (Debye)
         X       0.7937      Y       0.6532      Z      -4.4758
       Tot       4.5923
    Quadrupole Moments (Debye-Ang)
        XX     -30.5653     XY      -1.9514     YY     -36.2556
        XZ       5.0730     YZ       0.4564     ZZ     -27.1101

 Total job time:  749.84s(wall), 11483.12s(cpu)
        *  Thank you very much for using Q-Chem.  Have a nice day.  *
