 Q-Chem 5.4, Q-Chem, Inc., Pleasanton, CA (2021)
 Q-Chem 5.4.1 for Intel X86 EM64T Linux

User input:
--------------------------------------------------------------
$molecule
-1 2
C         0.0335825890    0.2156391192    0.2364698461
O         1.2001413651    0.0826017418    0.8943481755
H        -1.1277621868    1.3766541534   -0.6298194523
C        -0.8393693190   -0.8929137460   -0.0274891381
O        -0.5062190370   -2.0526716429    0.3744233366
O        -1.9104150558   -0.6008046154   -0.6669935653
O        -0.2722929998    1.4647120681   -0.1745756269
H         1.6345905442    0.9437645218    0.9577898244
$end

$rem
BASIS = def2-TZVPPD
JOB_TYPE = SP
METHOD = wB97M-V
SCF_ALGORITHM = DIIS_GDM
MAX_SCF_CYCLES = 400
SCF_CONVERGENCE = 7
THRESH = 12
Solvent_method = SMD
$end
--------------------------------------------------------------

             Standard Nuclear Orientation (Angstroms)
    I     Atom           X                Y                Z
 ----------------------------------------------------------------
    1      C       0.0335825890     0.2156391192     0.2364698461
    2      O       1.2001413651     0.0826017418     0.8943481755
    3      H      -1.1277621868     1.3766541534    -0.6298194523
    4      C      -0.8393693190    -0.8929137460    -0.0274891381
    5      O      -0.5062190370    -2.0526716429     0.3744233366
    6      O      -1.9104150558    -0.6008046154    -0.6669935653
    7      O      -0.2722929998     1.4647120681    -0.1745756269
    8      H       1.6345905442     0.9437645218     0.9577898244
 ----------------------------------------------------------------

   17    -378.5145985131      2.85e-08  Convergence criterion met
 Total energy in the final basis set =     -378.5066471301

                    Orbital Energies (a.u.)
 --------------------------------------------------------------

 Alpha MOs
 -- Occupied --
-19.3736 -19.3701 -19.2772 -19.2759 -10.4447 -10.4332  -1.2382  -1.1697
 -1.1506  -1.0646  -0.8192  -0.7039  -0.6664  -0.5833  -0.5801  -0.5284
 -0.5175  -0.5092  -0.4981  -0.4642  -0.3755  -0.3753  -0.3544  -0.2417

 Beta MOs
 -- Occupied --
-19.3705 -19.3669 -19.2747 -19.2732 -10.4350 -10.4327  -1.2296  -1.1627
 -1.1458  -1.0593  -0.8000  -0.6975  -0.6594  -0.5786  -0.5506  -0.5242
 -0.5132  -0.5051  -0.4806  -0.4383  -0.3694  -0.3545  -0.3510

          Ground-State Mulliken Net Atomic Charges

     Atom                 Charge (a.u.)    Spin (a.u.)
  --------------------------------------------------------
      1 C                     0.278634       0.563844
      2 O                    -0.403011       0.082018
      3 H                     0.272071      -0.003721
      4 C                     0.868699       0.089608
      5 O                    -0.889348       0.094835
      6 O                    -0.906219       0.090892
      7 O                    -0.478733       0.086165
      8 H                     0.257908      -0.003641
  --------------------------------------------------------
  Sum of atomic charges =    -1.000000

                    Cartesian Multipole Moments
 -----------------------------------------------------------------
    Charge (ESU x 10^10)
                -4.8032
    Dipole Moment (Debye)
         X       6.3591      Y       9.6206      Z       0.3542
       Tot      11.5377
    Quadrupole Moments (Debye-Ang)
        XX     -45.8435     XY      -5.5199     YY     -52.6836
        XZ      -2.4279     YZ       2.5403     ZZ     -38.1576

 Total job time:  183.99s(wall), 729.87s(cpu)
        *  Thank you very much for using Q-Chem.  Have a nice day.  *
