 Q-Chem 5.4, Q-Chem, Inc., Pleasanton, CA (2021)
 Q-Chem 5.4.1 for Intel X86 EM64T Linux

User input:
--------------------------------------------------------------
$molecule
0 2
O        -0.4628443119    1.4062765168   -0.3338263962
C         0.0001780212    0.4576397441    0.5699888494
O        -0.9991184032   -0.4100108625    0.9945623619
C         1.1585387697   -0.3123762542   -0.0500006829
O         2.0694287861    0.4823349227   -0.5845675524
O         1.2217330546   -1.5180777080   -0.0011624366
H        -1.0496509914    2.0161099922    0.1307241003
H        -0.6649513630   -1.3165348992    0.9062656099
H         2.7994759286   -0.0533732966   -0.9357000371
H         0.4330768658    0.9910550084    1.4857371922
O         1.2872704652    1.6529693057    2.5904387587
H         2.0679795783    1.7852775305    2.0246481329
$end

$rem
BASIS = def2-TZVPD
JOB_TYPE = SP
METHOD = wB97M-V
SCF_ALGORITHM = DIIS_GDM
MAX_SCF_CYCLES = 400
SCF_CONVERGENCE = 7
THRESH = 12
Solvent_method = SMD
$end
--------------------------------------------------------------

             Standard Nuclear Orientation (Angstroms)
    I     Atom           X                Y                Z
 ----------------------------------------------------------------
    1      O      -0.4628443119     1.4062765168    -0.3338263962
    2      C       0.0001780212     0.4576397441     0.5699888494
    3      O      -0.9991184032    -0.4100108625     0.9945623619
    4      C       1.1585387697    -0.3123762542    -0.0500006829
    5      O       2.0694287861     0.4823349227    -0.5845675524
    6      O       1.2217330546    -1.5180777080    -0.0011624366
    7      H      -1.0496509914     2.0161099922     0.1307241003
    8      H      -0.6649513630    -1.3165348992     0.9062656099
    9      H       2.7994759286    -0.0533732966    -0.9357000371
   10      H       0.4330768658     0.9910550084     1.4857371922
   11      O       1.2872704652     1.6529693057     2.5904387587
   12      H       2.0679795783     1.7852775305     2.0246481329
 ----------------------------------------------------------------

   22    -455.3484484514      9.58e-08  Convergence criterion met
 Total energy in the final basis set =     -455.3409311226

                    Orbital Energies (a.u.)
 --------------------------------------------------------------

 Alpha MOs
 -- Occupied --
-19.3965 -19.3839 -19.3633 -19.3593 -19.3494 -10.5026 -10.4784  -1.2671
 -1.2177  -1.1788  -1.1507  -1.1318  -0.8634  -0.7475  -0.6860  -0.6696
 -0.6439  -0.6138  -0.5849  -0.5657  -0.5451  -0.5291  -0.5066  -0.4872
 -0.4540  -0.4510  -0.4379  -0.4215  -0.3836

 Beta MOs
 -- Occupied --
-19.3965 -19.3629 -19.3625 -19.3581 -19.3492 -10.5025 -10.4746  -1.2666
 -1.2153  -1.1782  -1.1487  -1.0767  -0.8586  -0.7434  -0.6814  -0.6636
 -0.6379  -0.6081  -0.5721  -0.5507  -0.5440  -0.5216  -0.4857  -0.4514
 -0.4358  -0.4286  -0.4246  -0.4028

          Ground-State Mulliken Net Atomic Charges

     Atom                 Charge (a.u.)    Spin (a.u.)
  --------------------------------------------------------
      1 O                    -0.567492       0.026408
      2 C                     0.609044       0.137603
      3 O                    -0.594100       0.033967
      4 C                     0.624811       0.004781
      5 O                    -0.439504       0.000745
      6 O                    -0.667016       0.009112
      7 H                     0.387864      -0.000660
      8 H                     0.385954       0.000787
      9 H                     0.427182       0.000321
     10 H                     0.034857       0.000167
     11 O                    -0.588464       0.811792
     12 H                     0.386864      -0.025022
  --------------------------------------------------------
  Sum of atomic charges =    -0.000000

                    Cartesian Multipole Moments
 -----------------------------------------------------------------
    Charge (ESU x 10^10)
                -0.0000
    Dipole Moment (Debye)
         X       2.8805      Y       1.2531      Z      -1.4741
       Tot       3.4699
    Quadrupole Moments (Debye-Ang)
        XX     -29.8093     XY       0.9453     YY     -41.8588
        XZ      -2.1727     YZ      -0.1371     ZZ     -48.9904

 Total job time:  368.07s(wall), 1451.24s(cpu)
        *  Thank you very much for using Q-Chem.  Have a nice day.  *
