 Q-Chem 5.4, Q-Chem, Inc., Pleasanton, CA (2021)
 Q-Chem 5.4.1 for Intel X86 EM64T Linux

User input:
--------------------------------------------------------------
$molecule
0 2
C         0.1742585914    1.3954083047    1.1886351760
C         0.7206360242    2.5291255905    0.5591766375
C         1.5864198653    5.7442372941   -1.3367427662
O         2.0302521124    5.5864157980   -0.2167662240
O        -0.0623116198    1.3534627909    2.4259257436
O         1.0117088970    3.6076785673    1.2461463367
H        -0.0364484562    0.5447220130    0.5324336746
H         0.7923785186    5.1360282423   -1.7710196736
O         2.0068310031    6.6737168533   -2.1735030976
H         1.3861424185    4.3217739531    0.6630906601
H         2.7112796652    7.1980453208   -1.7565021409
O         0.9748001120    2.5932127536   -0.7456867755
H         0.7276086684    1.7664169186   -1.1851984506
$end

$rem
BASIS = 6-311++G(2df,2p)
GUI = 2
JOB_TYPE = Frequency
METHOD = wB97M-V
SOLVENT_METHOD = SMD
SCF_ALGORITHM = DIIS_GDM
MAX_SCF_CYCLES = 400
SCF_CONVERGENCE = 7
THRESH = 12
$end
--------------------------------------------------------------

   18    -493.4819772166      4.98e-08  Convergence criterion met
 Total energy in the final basis set =     -493.4691409808
   17    -493.4819749429      9.80e-08  Convergence criterion met
 Total energy in the final basis set =     -493.4691405841
   17    -493.4819787228      9.76e-08  Convergence criterion met
 Total energy in the final basis set =     -493.4691406129
   17    -493.4819740489      9.72e-08  Convergence criterion met
 Total energy in the final basis set =     -493.4691399293
   17    -493.4819782420      9.92e-08  Convergence criterion met
 Total energy in the final basis set =     -493.4691398886
   17    -493.4819818161      9.68e-08  Convergence criterion met
 Total energy in the final basis set =     -493.4691396139
   17    -493.4819698815      9.96e-08  Convergence criterion met
 Total energy in the final basis set =     -493.4691396564
   17    -493.4819796776      9.74e-08  Convergence criterion met
 Total energy in the final basis set =     -493.4691399992
   17    -493.4819709111      9.77e-08  Convergence criterion met
 Total energy in the final basis set =     -493.4691401442
   17    -493.4819771296      9.83e-08  Convergence criterion met
 Total energy in the final basis set =     -493.4691409095
   17    -493.4819771566      9.80e-08  Convergence criterion met
 Total energy in the final basis set =     -493.4691409047
   17    -493.4819762250      9.81e-08  Convergence criterion met
 Total energy in the final basis set =     -493.4691403473
   17    -493.4819768767      9.80e-08  Convergence criterion met
 Total energy in the final basis set =     -493.4691402827
   17    -493.4819762513      9.83e-08  Convergence criterion met
 Total energy in the final basis set =     -493.4691407216
   17    -493.4819776259      9.79e-08  Convergence criterion met
 Total energy in the final basis set =     -493.4691406838

                    Orbital Energies (a.u.)
 --------------------------------------------------------------

 Alpha MOs
 -- Occupied --
-19.3972 -19.3956 -19.3819 -19.3539 -19.3191 -10.4966 -10.4858 -10.4078
 -1.2673  -1.2611  -1.1908  -1.1736  -1.1502  -0.8610  -0.7915  -0.7482
 -0.7147  -0.6465  -0.6341  -0.6076  -0.5981  -0.5793  -0.5652  -0.5314
 -0.5237  -0.5134  -0.4970  -0.4760  -0.4527  -0.4224  -0.3785  -0.2810

 Beta MOs
 -- Occupied --
-19.3972 -19.3927 -19.3792 -19.3539 -19.3103 -10.4966 -10.4805 -10.4053
 -1.2634  -1.2584  -1.1851  -1.1731  -1.1348  -0.8427  -0.7915  -0.7422
 -0.7101  -0.6463  -0.6332  -0.6007  -0.5798  -0.5722  -0.5583  -0.5290
 -0.5191  -0.5090  -0.4570  -0.4530  -0.4465  -0.4220  -0.3682

          Ground-State Mulliken Net Atomic Charges

     Atom                 Charge (a.u.)    Spin (a.u.)
  --------------------------------------------------------
      1 C                    -0.099352       0.196808
      2 C                     0.340347       0.352027
      3 C                     0.233897       0.000413
      4 O                    -0.478545       0.000024
      5 O                    -0.547028       0.303926
      6 O                    -0.444353       0.078713
      7 H                     0.186346      -0.007911
      8 H                     0.235610       0.000261
      9 O                    -0.296157      -0.000085
     10 H                     0.481429      -0.000475
     11 H                     0.368140       0.000012
     12 O                    -0.330257       0.078388
     13 H                     0.349924      -0.002100
  --------------------------------------------------------
  Sum of atomic charges =     0.000000

                    Cartesian Multipole Moments
 -----------------------------------------------------------------
    Charge (ESU x 10^10)
                 0.0000
    Dipole Moment (Debye)
         X       1.9915      Y       3.4631      Z     -10.2339
       Tot      10.9860
    Quadrupole Moments (Debye-Ang)
        XX     -42.2009     XY      12.6254     YY     -11.7816
        XZ      -4.9678     YZ     -25.3085     ZZ     -63.6145

             Standard Nuclear Orientation (Angstroms)
    I     Atom           X                Y                Z
 ----------------------------------------------------------------
    1      C       0.1742585914     1.3954083047     1.1886351760
    2      C       0.7206360242     2.5291255905     0.5591766375
    3      C       1.5864198653     5.7442372941    -1.3367427662
    4      O       2.0302521124     5.5864157980    -0.2167662240
    5      O      -0.0623116198     1.3534627909     2.4259257436
    6      O       1.0117088970     3.6076785673     1.2461463367
    7      H      -0.0364484562     0.5447220130     0.5324336746
    8      H       0.7923785186     5.1360282423    -1.7710196736
    9      O       2.0068310031     6.6737168533    -2.1735030976
   10      H       1.3861424185     4.3217739531     0.6630906601
   11      H       2.7112796652     7.1980453208    -1.7565021409
   12      O       0.9748001120     2.5932127536    -0.7456867755
   13      H       0.7276086684     1.7664169186    -1.1851984506
 ----------------------------------------------------------------

 Frequency:         8.94                  44.50                  68.72
 Force Cnst:      0.0004                 0.0057                 0.0096
 Red. Mass:       8.2957                 4.9101                 3.4479
 IR Intens:        0.620                  0.900                  2.422
 Frequency:        94.24                 117.52                 154.50
 Force Cnst:      0.0188                 0.0685                 0.1234
 Red. Mass:       3.5925                 8.4205                 8.7724
 IR Intens:        1.038                  5.352                 12.622
 Frequency:       248.26                 301.76                 402.95
 Force Cnst:      0.1235                 0.3732                 0.1160
 Red. Mass:       3.4012                 6.9561                 1.2126
 IR Intens:        6.629                 44.026                218.778
 Frequency:       508.68                 562.71                 654.51
 Force Cnst:      0.7640                 0.6849                 0.8347
 Red. Mass:       5.0110                 3.6709                 3.3070
 IR Intens:       33.652                  7.670                164.331
 Frequency:       667.68                 670.22                 807.53
 Force Cnst:      1.8095                 0.3425                 0.4080
 Red. Mass:       6.8892                 1.2940                 1.0620
 IR Intens:       42.817                232.696                168.419
 Frequency:       875.73                 939.94                1089.03
 Force Cnst:      0.7573                 3.3779                 1.0769
 Red. Mass:       1.6759                 6.4894                 1.5412
 IR Intens:       27.542                166.869                  3.895
 Frequency:      1148.80                1202.07                1275.96
 Force Cnst:      2.3098                 1.1727                 1.9950
 Red. Mass:       2.9705                 1.3775                 2.0798
 IR Intens:      470.224                245.866                413.762
 Frequency:      1320.33                1354.05                1427.17
 Force Cnst:      1.9478                 1.6362                 2.5415
 Red. Mass:       1.8964                 1.5147                 2.1178
 IR Intens:      121.808                197.885                495.358
 Frequency:      1438.77                1519.89                1682.68
 Force Cnst:      1.4794                 3.4165                 8.5632
 Red. Mass:       1.2130                 2.5102                 5.1331
 IR Intens:       94.487                376.451                 22.342
 Frequency:      1711.31                3053.81                3139.34
 Force Cnst:     10.8638                 5.9668                 6.3257
 Red. Mass:       6.2961                 1.0859                 1.0894
 IR Intens:      959.065                 67.248                350.055
 Frequency:      3176.42                3718.91                3765.57
 Force Cnst:      6.4245                 8.6741                 8.9059
 Red. Mass:       1.0807                 1.0645                 1.0660
 IR Intens:     2393.272                193.995                241.936

 STANDARD THERMODYNAMIC QUANTITIES AT   298.15 K  AND     1.00 ATM

   This Molecule has  0 Imaginary Frequencies
   Zero point vibrational energy:       55.971 kcal/mol

   Atom    1 Element C  Has Mass   12.00000
   Atom    2 Element C  Has Mass   12.00000
   Atom    3 Element C  Has Mass   12.00000
   Atom    4 Element O  Has Mass   15.99491
   Atom    5 Element O  Has Mass   15.99491
   Atom    6 Element O  Has Mass   15.99491
   Atom    7 Element H  Has Mass    1.00783
   Atom    8 Element H  Has Mass    1.00783
   Atom    9 Element O  Has Mass   15.99491
   Atom   10 Element H  Has Mass    1.00783
   Atom   11 Element H  Has Mass    1.00783
   Atom   12 Element O  Has Mass   15.99491
   Atom   13 Element H  Has Mass    1.00783
   Molecular Mass:   121.013700 amu
   Principal axes and moments of inertia in amu*Bohr^2:
                             1           2           3
    Eigenvalues --      265.72215  2561.90637  2792.38891
          X               0.29633     0.12161     0.94731
          Y               0.79056     0.52532    -0.31473
          Z              -0.53592     0.84217     0.05953
   Rotational Symmetry Number is   1
   The Molecule is an Asymmetric Top
   Translational Enthalpy:        0.889 kcal/mol
   Rotational Enthalpy:           0.889 kcal/mol
   Vibrational Enthalpy:         60.329 kcal/mol
   gas constant (RT):             0.592 kcal/mol
   Translational Entropy:        40.286  cal/mol.K
   Rotational Entropy:           29.032  cal/mol.K
   Vibrational Entropy:          33.871  cal/mol.K

   Total Enthalpy:               62.699 kcal/mol
   Total Entropy:               103.189  cal/mol.K
 Total job time:  4780.54s(wall), 123330.34s(cpu)
        *  Thank you very much for using Q-Chem.  Have a nice day.  *
