 Q-Chem 5.4, Q-Chem, Inc., Pleasanton, CA (2021)
 Q-Chem 5.4.1 for Intel X86 EM64T Linux

User input:
--------------------------------------------------------------
$molecule
0 2
C         0.1375146710    1.4234258113    1.1445093121
C         0.7472992493    2.5523096550    0.5595316458
C         1.5625772452    5.7077824652   -1.2951276521
O         2.1306476585    5.5513480794   -0.2257091331
O        -0.1671061155    1.3815027443    2.3689911621
O         1.0236946262    3.6171787722    1.2902742858
H        -0.0573395826    0.5798843666    0.4645637088
H         0.7091449554    5.1135155795   -1.6337826622
O         1.9076207683    6.6188976119   -2.1914564662
H         1.4480317498    4.3243553323    0.7270814714
H         2.6722548139    7.1249125941   -1.8475115012
O         1.0820577607    2.6368877096   -0.7332357154
H         0.8271579998    1.8182436788   -1.1981393557
$end

$rem
BASIS = 6-311++G(2df,2p)
GUI = 2
JOB_TYPE = Optimization
METHOD = wB97M-V
SCF_ALGORITHM = DIIS_GDM
MAX_SCF_CYCLES = 400
GEOM_OPT_MAX_CYCLES = 150
SCF_CONVERGENCE = 7
THRESH = 12
Solvent_method = SMD
$end
--------------------------------------------------------------

   18    -493.4812173784      5.69e-08  Convergence criterion met
 Total energy in the final basis set =     -493.4685958354
   19    -493.4817597199      4.18e-08  Convergence criterion met
 Total energy in the final basis set =     -493.4689927926
   19    -493.4818484240      4.56e-08  Convergence criterion met
 Total energy in the final basis set =     -493.4690515243
   19    -493.4818742627      5.37e-08  Convergence criterion met
 Total energy in the final basis set =     -493.4690853487
   18    -493.4818893667      9.18e-08  Convergence criterion met
 Total energy in the final basis set =     -493.4690966494
   17    -493.4819204714      9.15e-08  Convergence criterion met
 Total energy in the final basis set =     -493.4691171764
   19    -493.4819414171      5.35e-08  Convergence criterion met
 Total energy in the final basis set =     -493.4691271657
   18    -493.4819487211      9.46e-08  Convergence criterion met
 Total energy in the final basis set =     -493.4691298096
   18    -493.4819516436      7.19e-08  Convergence criterion met
 Total energy in the final basis set =     -493.4691328937
   18    -493.4819556511      8.66e-08  Convergence criterion met
 Total energy in the final basis set =     -493.4691359515
   18    -493.4819657584      9.85e-08  Convergence criterion met
 Total energy in the final basis set =     -493.4691393216
   17    -493.4819722519      9.99e-08  Convergence criterion met
 Total energy in the final basis set =     -493.4691403921

             Standard Nuclear Orientation (Angstroms)
    I     Atom           X                Y                Z
 ----------------------------------------------------------------
    1      C       0.1742585914     1.3954083047     1.1886351760
    2      C       0.7206360242     2.5291255905     0.5591766375
    3      C       1.5864198653     5.7442372941    -1.3367427662
    4      O       2.0302521124     5.5864157980    -0.2167662240
    5      O      -0.0623116198     1.3534627909     2.4259257436
    6      O       1.0117088970     3.6076785673     1.2461463367
    7      H      -0.0364484562     0.5447220130     0.5324336746
    8      H       0.7923785186     5.1360282423    -1.7710196736
    9      O       2.0068310031     6.6737168533    -2.1735030976
   10      H       1.3861424185     4.3217739531     0.6630906601
   11      H       2.7112796652     7.1980453208    -1.7565021409
   12      O       0.9748001120     2.5932127536    -0.7456867755
   13      H       0.7276086684     1.7664169186    -1.1851984506
 ----------------------------------------------------------------

   17    -493.4819772155      9.66e-08  Convergence criterion met
 Total energy in the final basis set =     -493.4691409797
 Final energy is   -493.469140979749
 **  OPTIMIZATION CONVERGED  **

                    Orbital Energies (a.u.)
 --------------------------------------------------------------

 Alpha MOs
 -- Occupied --
-19.3972 -19.3956 -19.3819 -19.3539 -19.3191 -10.4966 -10.4858 -10.4078
 -1.2673  -1.2611  -1.1908  -1.1736  -1.1502  -0.8610  -0.7915  -0.7483
 -0.7147  -0.6465  -0.6341  -0.6076  -0.5981  -0.5793  -0.5652  -0.5314
 -0.5237  -0.5134  -0.4970  -0.4760  -0.4527  -0.4224  -0.3785  -0.2810

 Beta MOs
 -- Occupied --
-19.3972 -19.3927 -19.3792 -19.3539 -19.3103 -10.4966 -10.4805 -10.4054
 -1.2634  -1.2584  -1.1852  -1.1731  -1.1348  -0.8428  -0.7915  -0.7422
 -0.7101  -0.6463  -0.6332  -0.6007  -0.5798  -0.5722  -0.5584  -0.5290
 -0.5191  -0.5091  -0.4570  -0.4530  -0.4465  -0.4220  -0.3682

          Ground-State Mulliken Net Atomic Charges

     Atom                 Charge (a.u.)    Spin (a.u.)
  --------------------------------------------------------
      1 C                    -0.099486       0.196794
      2 C                     0.340334       0.352030
      3 C                     0.233908       0.000413
      4 O                    -0.478555       0.000024
      5 O                    -0.547006       0.303939
      6 O                    -0.444311       0.078722
      7 H                     0.186355      -0.007912
      8 H                     0.235608       0.000261
      9 O                    -0.296158      -0.000085
     10 H                     0.481442      -0.000475
     11 H                     0.368141       0.000012
     12 O                    -0.329955       0.078377
     13 H                     0.349684      -0.002101
  --------------------------------------------------------
  Sum of atomic charges =    -0.000000

                    Cartesian Multipole Moments
 -----------------------------------------------------------------
    Charge (ESU x 10^10)
                -0.0000
    Dipole Moment (Debye)
         X       1.9916      Y       3.4634      Z     -10.2313
       Tot      10.9836
    Quadrupole Moments (Debye-Ang)
        XX     -42.1999     XY      12.6260     YY     -11.7789
        XZ      -4.9665     YZ     -25.3049     ZZ     -63.6187

 Total job time:  1869.84s(wall), 13823.17s(cpu)
        *  Thank you very much for using Q-Chem.  Have a nice day.  *
