 Q-Chem 5.4, Q-Chem, Inc., Pleasanton, CA (2021)
 Q-Chem 5.4.1 for Intel X86 EM64T Linux

User input:
--------------------------------------------------------------
$molecule
0 2
C         0.6072589961    0.0995536333    0.2712972596
O         1.4192510827   -0.7394525853    0.5581470688
H        -2.1260616732    1.1525978741    0.6669314370
C        -0.8871968854   -0.2005200305    0.1817492238
O        -1.1409735157   -1.4918035736    0.0903525274
O        -1.6789620209    0.6859210684   -0.2986863993
O         0.9279555595    1.3610302873    0.0358978246
H         0.1400538454    1.8737465506   -0.2114863691
O        -1.2145784868    0.1862517434    2.0046042293
O        -2.1040940641    1.1019168681    1.9304935257
H        -2.0845900376   -1.6251677360   -0.0954806277
$end

$rem
BASIS = def2-TZVPPD
JOB_TYPE = SP
METHOD = wB97M-V
SCF_ALGORITHM = DIIS_GDM
MAX_SCF_CYCLES = 400
SCF_CONVERGENCE = 7
THRESH = 12
Solvent_method = SMD
$end
--------------------------------------------------------------

             Standard Nuclear Orientation (Angstroms)
    I     Atom           X                Y                Z
 ----------------------------------------------------------------
    1      C       0.6072589961     0.0995536333     0.2712972596
    2      O       1.4192510827    -0.7394525853     0.5581470688
    3      H      -2.1260616732     1.1525978741     0.6669314370
    4      C      -0.8871968854    -0.2005200305     0.1817492238
    5      O      -1.1409735157    -1.4918035736     0.0903525274
    6      O      -1.6789620209     0.6859210684    -0.2986863993
    7      O       0.9279555595     1.3610302873     0.0358978246
    8      H       0.1400538454     1.8737465506    -0.2114863691
    9      O      -1.2145784868     0.1862517434     2.0046042293
   10      O      -2.1040940641     1.1019168681     1.9304935257
   11      H      -2.0845900376    -1.6251677360    -0.0954806277
 ----------------------------------------------------------------

   21    -529.3436414303      5.92e-08  Convergence criterion met
 Total energy in the final basis set =     -529.3362420483

                    Orbital Energies (a.u.)
 --------------------------------------------------------------

 Alpha MOs
 -- Occupied --
-19.4540 -19.4484 -19.3982 -19.3975 -19.3660 -19.3488 -10.5355 -10.5094
 -1.3668  -1.2775  -1.2509  -1.1931  -1.1732  -0.9761  -0.8451  -0.7535
 -0.7313  -0.7013  -0.6657  -0.6312  -0.6234  -0.6006  -0.5840  -0.5582
 -0.5313  -0.5144  -0.4922  -0.4703  -0.4514  -0.4199  -0.4035  -0.3933

 Beta MOs
 -- Occupied --
-19.4385 -19.4333 -19.3982 -19.3976 -19.3661 -19.3487 -10.5359 -10.5094
 -1.3399  -1.2759  -1.2506  -1.1928  -1.1731  -0.9377  -0.8415  -0.7535
 -0.7245  -0.6997  -0.6637  -0.6042  -0.6007  -0.5836  -0.5594  -0.5453
 -0.5214  -0.5132  -0.4864  -0.4685  -0.4511  -0.4121  -0.3820

          Ground-State Mulliken Net Atomic Charges

     Atom                 Charge (a.u.)    Spin (a.u.)
  --------------------------------------------------------
      1 C                     0.572677      -0.001448
      2 O                    -0.647779       0.001117
      3 H                     0.371673      -0.015614
      4 C                     0.928344      -0.004853
      5 O                    -0.363832      -0.004045
      6 O                    -0.652651      -0.002900
      7 O                    -0.370878       0.000870
      8 H                     0.259978      -0.001809
      9 O                    -0.170842       0.509275
     10 O                    -0.152516       0.518089
     11 H                     0.225828       0.001318
  --------------------------------------------------------
  Sum of atomic charges =     0.000000

                    Cartesian Multipole Moments
 -----------------------------------------------------------------
    Charge (ESU x 10^10)
                 0.0000
    Dipole Moment (Debye)
         X      -5.2113      Y       1.7875      Z      -2.3653
       Tot       5.9956
    Quadrupole Moments (Debye-Ang)
        XX     -44.9161     XY       5.1644     YY     -41.8097
        XZ      -0.2055     YZ       0.8417     ZZ     -50.4889

 Total job time:  494.39s(wall), 1965.20s(cpu)
        *  Thank you very much for using Q-Chem.  Have a nice day.  *
