 Q-Chem 5.4, Q-Chem, Inc., Pleasanton, CA (2021)
 Q-Chem 5.4.1 for Intel X86 EM64T Linux

User input:
--------------------------------------------------------------
$molecule
0 2
C         0.5695364666    0.0119301795    0.6700025330
O         1.4789047047   -0.2444354264    1.4529369886
H        -1.5874791836   -0.0042416406   -0.8607253565
C        -0.5883875990   -0.8391455004    0.5767346309
O        -0.5918967654   -1.9098741433    1.3586140692
O        -1.6065446707   -0.7618225066   -0.2626693904
O         0.6742482200    1.1189624247   -0.0988121464
H        -0.1018849591    1.3272414999   -0.6326109051
O        -1.5183944077    0.8592388770    2.0550452789
O        -2.5615200239    1.1545408207    1.5113733859
H        -1.4004993818   -2.4225410845    1.2079938120
$end

$rem
BASIS = def2-TZVPD
JOB_TYPE = SP
METHOD = wB97M-V
SCF_ALGORITHM = DIIS_GDM
MAX_SCF_CYCLES = 400
SCF_CONVERGENCE = 7
THRESH = 12
Solvent_method = SMD
$end
--------------------------------------------------------------

             Standard Nuclear Orientation (Angstroms)
    I     Atom           X                Y                Z
 ----------------------------------------------------------------
    1      C       0.5695364666     0.0119301795     0.6700025330
    2      O       1.4789047047    -0.2444354264     1.4529369886
    3      H      -1.5874791836    -0.0042416406    -0.8607253565
    4      C      -0.5883875990    -0.8391455004     0.5767346309
    5      O      -0.5918967654    -1.9098741433     1.3586140692
    6      O      -1.6065446707    -0.7618225066    -0.2626693904
    7      O       0.6742482200     1.1189624247    -0.0988121464
    8      H      -0.1018849591     1.3272414999    -0.6326109051
    9      O      -1.5183944077     0.8592388770     2.0550452789
   10      O      -2.5615200239     1.1545408207     1.5113733859
   11      H      -1.4004993818    -2.4225410845     1.2079938120
 ----------------------------------------------------------------

   29    -529.3122637437      3.75e-08  Convergence criterion met
 Total energy in the final basis set =     -529.3050972004

                    Orbital Energies (a.u.)
 --------------------------------------------------------------

 Alpha MOs
 -- Occupied --
-19.4738 -19.4630 -19.4030 -19.3924 -19.3821 -19.3209 -10.4931 -10.4896
 -1.4101  -1.2720  -1.2302  -1.1946  -1.1456  -0.9476  -0.8521  -0.7541
 -0.7407  -0.6816  -0.6638  -0.6563  -0.6468  -0.5827  -0.5794  -0.5491
 -0.5336  -0.5322  -0.5062  -0.4652  -0.4255  -0.4053  -0.3969  -0.3905

 Beta MOs
 -- Occupied --
-19.4457 -19.4356 -19.4053 -19.3951 -19.3829 -19.3250 -10.5001 -10.4905
 -1.3585  -1.2784  -1.2336  -1.2003  -1.1512  -0.8789  -0.8581  -0.7590
 -0.7431  -0.6850  -0.6371  -0.5981  -0.5878  -0.5629  -0.5524  -0.5521
 -0.5377  -0.5358  -0.5095  -0.4834  -0.4441  -0.4097  -0.2707

          Ground-State Mulliken Net Atomic Charges

     Atom                 Charge (a.u.)    Spin (a.u.)
  --------------------------------------------------------
      1 C                     0.785498      -0.077772
      2 O                    -0.755218      -0.149902
      3 H                     0.385082      -0.000944
      4 C                     0.459977      -0.411339
      5 O                    -0.472885      -0.082038
      6 O                    -0.499723      -0.070699
      7 O                    -0.532357      -0.020466
      8 H                     0.358857      -0.001138
      9 O                    -0.025451       0.889504
     10 O                    -0.121057       0.921913
     11 H                     0.417277       0.002880
  --------------------------------------------------------
  Sum of atomic charges =    -0.000000

                    Cartesian Multipole Moments
 -----------------------------------------------------------------
    Charge (ESU x 10^10)
                -0.0000
    Dipole Moment (Debye)
         X      -6.4930      Y      -0.6356      Z      -5.7489
       Tot       8.6956
    Quadrupole Moments (Debye-Ang)
        XX     -50.8469     XY       3.5917     YY     -40.3353
        XZ      -3.7599     YZ      -3.2669     ZZ     -50.2135

 Total job time:  572.95s(wall), 2271.11s(cpu)
        *  Thank you very much for using Q-Chem.  Have a nice day.  *
