 Q-Chem 5.4, Q-Chem, Inc., Pleasanton, CA (2021)
 Q-Chem 5.4.1 for Intel X86 EM64T Linux

User input:
--------------------------------------------------------------
$molecule
0 1
O        -0.6678554955    1.1020238419    0.2612852811
C        -0.3656352537   -0.2442880346    0.5330946241
O        -1.0087321239   -1.1308296264   -0.3381898993
C         1.1413976584   -0.4349469172    0.3500214906
O         1.8712152688    0.6730078684    0.4158507821
O         1.6501434675   -1.5191886229    0.2019956850
H        -1.3958858049    1.3819609322    0.8267715306
H        -1.8915177107   -1.3065397044    0.0066128236
H         1.2716528173    1.4364649447    0.4903475041
H        -0.6024757234   -0.4811881816    1.5723379780
$end

$rem
BASIS = def2-QZVP
JOB_TYPE = SP
METHOD = wB97M-V
SCF_ALGORITHM = DIIS_GDM
MAX_SCF_CYCLES = 400
SCF_CONVERGENCE = 7
THRESH = 12
Solvent_method = SMD
$end
--------------------------------------------------------------

             Standard Nuclear Orientation (Angstroms)
    I     Atom           X                Y                Z
 ----------------------------------------------------------------
    1      O      -0.6678554955     1.1020238419     0.2612852811
    2      C      -0.3656352537    -0.2442880346     0.5330946241
    3      O      -1.0087321239    -1.1308296264    -0.3381898993
    4      C       1.1413976584    -0.4349469172     0.3500214906
    5      O       1.8712152688     0.6730078684     0.4158507821
    6      O       1.6501434675    -1.5191886229     0.2019956850
    7      H      -1.3958858049     1.3819609322     0.8267715306
    8      H      -1.8915177107    -1.3065397044     0.0066128236
    9      H       1.2716528173     1.4364649447     0.4903475041
   10      H      -0.6024757234    -0.4811881816     1.5723379780
 ----------------------------------------------------------------

   14    -379.6225548068      9.02e-08  Convergence criterion met
 Total energy in the final basis set =     -379.6156318432

                    Orbital Energies (a.u.)
 --------------------------------------------------------------

 Alpha MOs
 -- Occupied --
-19.3849 -19.3561 -19.3512 -19.3342 -10.4921 -10.4658  -1.2556  -1.2057
 -1.1707  -1.1433  -0.8478  -0.7369  -0.6734  -0.6589  -0.6572  -0.5833
 -0.5624  -0.5277  -0.5156  -0.4906  -0.4440  -0.4305  -0.4256  -0.3977

          Ground-State Mulliken Net Atomic Charges

     Atom                 Charge (a.u.)
  ----------------------------------------
      1 O                    -0.475203
      2 C                     0.239607
      3 O                    -0.487011
      4 C                     0.348510
      5 O                    -0.344696
      6 O                    -0.409525
      7 H                     0.341344
      8 H                     0.336546
      9 H                     0.331018
     10 H                     0.119410
  ----------------------------------------
  Sum of atomic charges =     0.000000

                    Cartesian Multipole Moments
 -----------------------------------------------------------------
    Charge (ESU x 10^10)
                -0.0000
    Dipole Moment (Debye)
         X      -6.2823      Y       4.1489      Z       4.0977
       Tot       8.5716
    Quadrupole Moments (Debye-Ang)
        XX     -35.9855     XY       6.3591     YY     -37.9342
        XZ      -4.8623     YZ       1.0465     ZZ     -31.9622

 Total job time:  643.85s(wall), 2563.25s(cpu)
        *  Thank you very much for using Q-Chem.  Have a nice day.  *
