 Q-Chem 5.4, Q-Chem, Inc., Pleasanton, CA (2021)
 Q-Chem 5.4.1 for Intel X86 EM64T Linux

User input:
--------------------------------------------------------------
$molecule
0 2
O        -1.7005575682    1.7829465742    0.6678097587
H        -0.9876783031    2.4000545673    0.4231752626
$end

$rem
BASIS = 6-311++G**
JOB_TYPE = SP
METHOD = wB97M-V
SCF_ALGORITHM = DIIS_GDM
MAX_SCF_CYCLES = 400
SCF_CONVERGENCE = 7
THRESH = 12
Solvent_method = SMD
$end
--------------------------------------------------------------

             Standard Nuclear Orientation (Angstroms)
    I     Atom           X                Y                Z
 ----------------------------------------------------------------
    1      O      -1.7005575682     1.7829465742     0.6678097587
    2      H      -0.9876783031     2.4000545673     0.4231752626
 ----------------------------------------------------------------

   29     -75.7430724988      2.33e-08  Convergence criterion met
 Total energy in the final basis set =      -75.7418955113

                    Orbital Energies (a.u.)
 --------------------------------------------------------------

 Alpha MOs
 -- Occupied --
-19.4036  -1.1437  -0.5917  -0.5204  -0.4650

 Beta MOs
 -- Occupied --
-19.3789  -1.0724  -0.5612  -0.4318

          Ground-State Mulliken Net Atomic Charges

     Atom                 Charge (a.u.)    Spin (a.u.)
  --------------------------------------------------------
      1 O                    -0.321566       1.021210
      2 H                     0.321566      -0.021210
  --------------------------------------------------------
  Sum of atomic charges =    -0.000000

                    Cartesian Multipole Moments
 -----------------------------------------------------------------
    Charge (ESU x 10^10)
                 0.0000
    Dipole Moment (Debye)
         X       1.6336      Y       1.4143      Z      -0.5606
       Tot       2.2323
    Quadrupole Moments (Debye-Ang)
        XX     -10.9906     XY       1.8860     YY      -0.8208
        XZ       1.8167     YZ      -0.3293     ZZ      -6.2659

 Total job time:  10.13s(wall), 35.66s(cpu)
        *  Thank you very much for using Q-Chem.  Have a nice day.  *
