 Q-Chem 5.4, Q-Chem, Inc., Pleasanton, CA (2021)
 Q-Chem 5.4.1 for Intel X86 EM64T Linux

User input:
--------------------------------------------------------------
$molecule
-1 2
C    0.6332017    0.2492219    0.7584201
O    1.4025855   -0.2466266    1.5928966
H   -1.9375710   -1.0123332   -0.8866207
C   -0.5876356   -0.6521106    0.4044917
O   -0.8569533   -1.6133087    1.1906388
O   -1.1874161   -0.4200235   -0.6924267
O    0.6788791    1.3139224    0.1285258
O   -1.4798179    1.1120009    2.5219901
O   -2.4778756    0.8597842    1.6870393
H   -1.6207131   -2.1609506    0.9312916
$end

$rem
BASIS = 6-311++G(2df,2p)
GUI = 2
JOB_TYPE = Frequency
METHOD = wB97M-V
SOLVENT_METHOD = SMD
SCF_ALGORITHM = DIIS_GDM
MAX_SCF_CYCLES = 400
SCF_CONVERGENCE = 7
THRESH = 12
UNRESTRICTED = 1
SYMMETRY_IGNORE = 1
$end

--------------------------------------------------------------

   28    -528.8421696942      9.73e-08  Convergence criterion met
 Total energy in the final basis set =     -528.8340196922
   26    -528.8421730441      7.44e-08  Convergence criterion met
 Total energy in the final basis set =     -528.8340187599
   26    -528.8421647186      7.40e-08  Convergence criterion met
 Total energy in the final basis set =     -528.8340190153
   26    -528.8421712680      7.45e-08  Convergence criterion met
 Total energy in the final basis set =     -528.8340187485
   28    -528.8421658097      5.12e-08  Convergence criterion met
 Total energy in the final basis set =     -528.8340183577
   18    -528.8421691633      8.78e-08  Convergence criterion met
 Total energy in the final basis set =     -528.8340184346
   26    -528.8421682814      7.63e-08  Convergence criterion met
 Total energy in the final basis set =     -528.8340190332
   27    -528.8421668296      6.05e-08  Convergence criterion met
 Frequency:      -143.26                  66.05                  81.90
 Force Cnst:      0.1715                 0.0357                 0.0530
 Red. Mass:      14.1857                13.8709                13.4154
 IR Intens:        4.253                  5.754                  9.693
 Frequency:        91.45                 106.56                 118.87
 Force Cnst:      0.0636                 0.0733                 0.0751
 Red. Mass:      12.9128                10.9519                 9.0243
 IR Intens:        8.733                 79.065                  8.880
 Frequency:       289.04                 396.06                 432.49
 Force Cnst:      0.4669                 0.3684                 1.0311
 Red. Mass:       9.4864                 3.9860                 9.3562
 IR Intens:        2.119                  2.587                  5.111
 Frequency:       568.47                 591.12                 698.41
 Force Cnst:      1.0103                 0.2274                 0.5867
 Red. Mass:       5.3060                 1.1046                 2.0415
 IR Intens:        4.002                  0.238                411.412
 Frequency:       708.07                 834.30                 851.77
 Force Cnst:      0.8994                 4.7986                 3.1809
 Red. Mass:       3.0448                11.7010                 7.4414
 IR Intens:      271.676                  9.287                 32.885
 Frequency:      1200.69                1259.45                1270.01
 Force Cnst:      0.9355                 2.4564                14.7592
 Red. Mass:       1.1014                 2.6284                15.5310
 IR Intens:      446.097                235.546                  0.694
 Frequency:      1360.92                1578.72                1596.24
 Force Cnst:      6.4410                16.7211                 3.7978
 Red. Mass:       5.9025                11.3869                 2.5298
 IR Intens:      204.623                950.921                 20.026
 Frequency:      1683.62                3680.23                3685.87
 Force Cnst:     21.4454                 8.5043                 8.5325
 Red. Mass:      12.8409                 1.0657                 1.0660
 IR Intens:     1250.998                261.383                432.074

 STANDARD THERMODYNAMIC QUANTITIES AT   298.15 K  AND     1.00 ATM

   This Molecule has  1 Imaginary Frequencies
   Zero point vibrational energy:       33.095 kcal/mol

   Atom    1 Element C  Has Mass   12.00000
   Atom    2 Element O  Has Mass   15.99491
   Atom    3 Element H  Has Mass    1.00783
   Atom    4 Element C  Has Mass   12.00000
   Atom    5 Element O  Has Mass   15.99491
   Atom    6 Element O  Has Mass   15.99491
   Atom    7 Element O  Has Mass   15.99491
   Atom    8 Element O  Has Mass   15.99491
   Atom    9 Element O  Has Mass   15.99491
   Atom   10 Element H  Has Mass    1.00783
   Molecular Mass:   121.985120 amu
   Principal axes and moments of inertia in amu*Bohr^2:
                             1           2           3
    Eigenvalues --      789.70324  1011.79280  1191.85022
          X               0.91254     0.37742     0.15757
          Y              -0.18511     0.72468    -0.66375
          Z              -0.36470     0.57654     0.73116
   Rotational Symmetry Number is   1
   The Molecule is an Asymmetric Top
   Translational Enthalpy:        0.889 kcal/mol
   Rotational Enthalpy:           0.889 kcal/mol
   Vibrational Enthalpy:         36.565 kcal/mol
   gas constant (RT):             0.592 kcal/mol
   Translational Entropy:        40.310  cal/mol.K
   Rotational Entropy:           28.345  cal/mol.K
   Vibrational Entropy:          23.572  cal/mol.K

   Total Enthalpy:               38.935 kcal/mol
   Total Entropy:                92.227  cal/mol.K
 Total job time:  4956.10s(wall), 71876.08s(cpu)
        *  Thank you very much for using Q-Chem.  Have a nice day.  *
 Q-Chem 5.4, Q-Chem, Inc., Pleasanton, CA (2021)
 Q-Chem 5.4.1 for Intel X86 EM64T Linux

User input:
--------------------------------------------------------------

$molecule
read
$end

$rem
JOBTYPE            rpath
SCF_GUESS          read
RPATH_MAX_CYCLES   30
BASIS = 6-311++G(2df,2p)
METHOD = wB97M-V
SOLVENT_METHOD = SMD
SCF_ALGORITHM = DIIS_GDM
SCF_CONVERGENCE = 7
THRESH = 12
$end
--------------------------------------------------------------

 Total energy in the final basis set =     -528.8340196917
   27    -528.8422384362      4.70e-08  Convergence criterion met
 Total energy in the final basis set =     -528.8340766626
   26    -528.8394031475      7.71e-08  Convergence criterion met
 Total energy in the final basis set =     -528.8312666337
   26    -528.8422465288      5.29e-08  Convergence criterion met
 Total energy in the final basis set =     -528.8340860622
   24    -528.8374544112      8.95e-08  Convergence criterion met
 Total energy in the final basis set =     -528.8293173849
   27    -528.8422497274      7.44e-08  Convergence criterion met
 Total energy in the final basis set =     -528.8340898383
   27    -528.8422497277      9.38e-08  Convergence criterion met
 Total energy in the final basis set =     -528.8340897990
   27    -528.8422505057      7.24e-08  Convergence criterion met
 Total energy in the final basis set =     -528.8340905970

                    Orbital Energies (a.u.)
 --------------------------------------------------------------

 Alpha MOs
 -- Occupied --
-19.4390 -19.4382 -19.3381 -19.3376 -19.3065 -19.3065 -10.5498 -10.4753
 -1.3261  -1.2447  -1.2168  -1.1957  -1.1115  -0.8694  -0.8643  -0.7752
 -0.7117  -0.6379  -0.6305  -0.5749  -0.5545  -0.5420  -0.5365  -0.5249
 -0.5194  -0.5049  -0.4916  -0.3934  -0.3897  -0.3844  -0.3245  -0.2934

 Beta MOs
 -- Occupied --
-19.4390 -19.4382 -19.3237 -19.3233 -19.3066 -19.3064 -10.5498 -10.4753
 -1.3261  -1.2447  -1.1960  -1.1873  -1.1115  -0.8690  -0.8223  -0.7752
 -0.7117  -0.6375  -0.6305  -0.5748  -0.5545  -0.5406  -0.5336  -0.5078
 -0.4996  -0.4772  -0.4375  -0.3931  -0.3894  -0.3842  -0.2742

          Ground-State Mulliken Net Atomic Charges

     Atom                 Charge (a.u.)    Spin (a.u.)
  --------------------------------------------------------
      1 C                     0.315506       0.006302
      2 O                    -0.577964      -0.000843
      3 H                     0.389979      -0.000070
      4 C                     0.344186      -0.005525
      5 O                    -0.174804      -0.000943
      6 O                    -0.177594       0.000419
      7 O                    -0.583439       0.000262
      8 O                    -0.443768       0.501755
      9 O                    -0.482018       0.498641
     10 H                     0.389914       0.000001
  --------------------------------------------------------
  Sum of atomic charges =    -1.000000

                    Cartesian Multipole Moments
 -----------------------------------------------------------------
    Charge (ESU x 10^10)
                -4.8032
    Dipole Moment (Debye)
         X      -2.3164      Y     -13.1091      Z     -13.1468
       Tot      18.7097
    Quadrupole Moments (Debye-Ang)
        XX     -61.9160     XY      18.7218     YY     -47.8672
        XZ      11.7670     YZ      -8.7547     ZZ     -74.2246

             Standard Nuclear Orientation (Angstroms)
    I     Atom           X                Y                Z
 ----------------------------------------------------------------
    1      C       0.6332017000     0.2492219000     0.7584201000
    2      O       1.4025855000    -0.2466266000     1.5928966000
    3      H      -1.9375710000    -1.0123332000    -0.8866207000
    4      C      -0.5876356000    -0.6521106000     0.4044917000
    5      O      -0.8569533000    -1.6133087000     1.1906388000
    6      O      -1.1874161000    -0.4200235000    -0.6924267000
    7      O       0.6788791000     1.3139224000     0.1285258000
    8      O      -1.4798179000     1.1120009000     2.5219901000
    9      O      -2.4778756000     0.8597842000     1.6870393000
   10      H      -1.6207131000    -2.1609506000     0.9312916000
 ----------------------------------------------------------------

 Total job time:  1339.28s(wall), 19423.76s(cpu)
        *  Thank you very much for using Q-Chem.  Have a nice day.  *
