 Q-Chem 5.4, Q-Chem, Inc., Pleasanton, CA (2021)
 Q-Chem 5.4.1 for Intel X86 EM64T Linux

User input:
--------------------------------------------------------------
$molecule
0 2
O   -0.3000771    1.0478047    0.3958903
C   -0.6602303   -0.0916274    0.3633526
O   -1.3863203   -0.6138628   -0.6108436
H   -0.3910542   -0.8483749    1.2117784
O   -0.1901252   -1.9415639    2.1326759
H   -0.7114638   -2.6100800    1.6552815
H   -1.5635054   -1.5500099   -0.4327243
$end

$rem
BASIS = 6-311++G(2df,2p)
GUI = 2
JOB_TYPE = Frequency
METHOD = wB97M-V
SOLVENT_METHOD = SMD
SCF_ALGORITHM = DIIS_GDM
MAX_SCF_CYCLES = 400
SCF_CONVERGENCE = 7
THRESH = 12
$end

--------------------------------------------------------------

   22    -265.5285424673      3.43e-08  Convergence criterion met
 Total energy in the final basis set =     -265.5209543794
   20    -265.5285414477      9.29e-08  Convergence criterion met
 Total energy in the final basis set =     -265.5209541835
   20    -265.5285430615      7.90e-08  Convergence criterion met
 Total energy in the final basis set =     -265.5209541531
   20    -265.5285390738      8.77e-08  Convergence criterion met
 Total energy in the final basis set =     -265.5209530279
   18    -265.5285430865      8.97e-08  Convergence criterion met
 Total energy in the final basis set =     -265.5209529793
   20    -265.5285418772      7.85e-08  Convergence criterion met
 Total energy in the final basis set =     -265.5209541557
   20    -265.5285428110      8.73e-08  Convergence criterion met
 Total energy in the final basis set =     -265.5209543569
   20    -265.5285397503      6.57e-08  Convergence criterion met
 Frequency:      -693.64                  95.00                 138.94
 Force Cnst:      0.7319                 0.0070                 0.0372
 Red. Mass:       2.5820                 1.3167                 3.2690
 IR Intens:     3483.625                 49.691                 26.629
 Frequency:       149.85                 551.41                 665.93
 Force Cnst:      0.0257                 0.2028                 1.3912
 Red. Mass:       1.9449                 1.1323                 5.3246
 IR Intens:      247.511                138.363                 12.443
 Frequency:       763.92                 998.62                1063.63
 Force Cnst:      0.3722                 0.9497                 1.1177
 Red. Mass:       1.0826                 1.6164                 1.6769
 IR Intens:       16.762                 16.405               4945.354
 Frequency:      1152.47                1258.58                1462.10
 Force Cnst:      3.1709                 1.2716                 1.4182
 Red. Mass:       4.0520                 1.3625                 1.1260
 IR Intens:      205.219                585.518                618.866
 Frequency:      1803.27                3734.23                3760.77
 Force Cnst:     15.8922                 8.7682                 8.8860
 Red. Mass:       8.2950                 1.0672                 1.0664
 IR Intens:      910.310                146.977                239.784

 STANDARD THERMODYNAMIC QUANTITIES AT   298.15 K  AND     1.00 ATM

   This Molecule has  1 Imaginary Frequencies
   Zero point vibrational energy:       25.159 kcal/mol

   Atom    1 Element O  Has Mass   15.99491
   Atom    2 Element C  Has Mass   12.00000
   Atom    3 Element O  Has Mass   15.99491
   Atom    4 Element H  Has Mass    1.00783
   Atom    5 Element O  Has Mass   15.99491
   Atom    6 Element H  Has Mass    1.00783
   Atom    7 Element H  Has Mass    1.00783
   Molecular Mass:    63.008220 amu
   Principal axes and moments of inertia in amu*Bohr^2:
                             1           2           3
    Eigenvalues --      153.91364   415.04564   568.95051
          X              -0.16389     0.52330     0.83624
          Y               0.73143     0.63327    -0.25294
          Z              -0.66192     0.57020    -0.48655
   Rotational Symmetry Number is   1
   The Molecule is an Asymmetric Top
   Translational Enthalpy:        0.889 kcal/mol
   Rotational Enthalpy:           0.889 kcal/mol
   Vibrational Enthalpy:         26.766 kcal/mol
   gas constant (RT):             0.592 kcal/mol
   Translational Entropy:        38.341  cal/mol.K
   Rotational Entropy:           25.100  cal/mol.K
   Vibrational Entropy:          10.442  cal/mol.K

   Total Enthalpy:               29.136 kcal/mol
   Total Entropy:                73.883  cal/mol.K
 Total job time:  1275.71s(wall), 9824.49s(cpu)
        *  Thank you very much for using Q-Chem.  Have a nice day.  *
 Q-Chem 5.4, Q-Chem, Inc., Pleasanton, CA (2021)
 Q-Chem 5.4.1 for Intel X86 EM64T Linux

User input:
--------------------------------------------------------------

$molecule
read
$end

$rem
JOBTYPE            rpath
SCF_GUESS          read
RPATH_MAX_CYCLES   30
BASIS = 6-311++G(2df,2p)
METHOD = wB97M-V
SOLVENT_METHOD = SMD
SCF_ALGORITHM = DIIS_GDM
SCF_CONVERGENCE = 7
THRESH = 12
$end
--------------------------------------------------------------

 Total energy in the final basis set =     -265.5239292112
   23    -265.5321070748      5.70e-08  Convergence criterion met
 Total energy in the final basis set =     -265.5245572323
   23    -265.5320101340      9.79e-08  Convergence criterion met
 Total energy in the final basis set =     -265.5244501456
   23    -265.5321739521      6.43e-08  Convergence criterion met
 Total energy in the final basis set =     -265.5246202010
   24    -265.5307299295      2.72e-08  Convergence criterion met
 Total energy in the final basis set =     -265.5231173906
   23    -265.5322546475      9.53e-08  Convergence criterion met
 Total energy in the final basis set =     -265.5246892571
   16    -265.5322255185      4.43e-08  Convergence criterion met
 Total energy in the final basis set =     -265.5246693738
   23    -265.5322802275      7.81e-08  Convergence criterion met
 Total energy in the final basis set =     -265.5247187408

                    Orbital Energies (a.u.)
 --------------------------------------------------------------

 Alpha MOs
 -- Occupied --
-19.4050 -19.3917 -19.3428 -10.4899  -1.2512  -1.1711  -1.1467  -0.7589
 -0.7022  -0.5946  -0.5915  -0.5724  -0.5381  -0.5047  -0.4678  -0.4461
 -0.4044

 Beta MOs
 -- Occupied --
-19.3914 -19.3811 -19.3423 -10.4887  -1.2503  -1.1701  -1.0789  -0.7561
 -0.6962  -0.5899  -0.5716  -0.5659  -0.5162  -0.4458  -0.4365  -0.4093

          Ground-State Mulliken Net Atomic Charges

     Atom                 Charge (a.u.)    Spin (a.u.)
  --------------------------------------------------------
      1 O                    -0.445546       0.017168
      2 C                     0.117607       0.052329
      3 O                    -0.286008       0.007652
      4 H                     0.295728      -0.021676
      5 O                    -0.365185       0.957009
      6 H                     0.347385      -0.011792
      7 H                     0.336019      -0.000691
  --------------------------------------------------------
  Sum of atomic charges =    -0.000000

                    Cartesian Multipole Moments
 -----------------------------------------------------------------
    Charge (ESU x 10^10)
                 0.0000
    Dipole Moment (Debye)
         X      -2.1672      Y      -6.4064      Z      -0.2806
       Tot       6.7689
    Quadrupole Moments (Debye-Ang)
        XX     -21.7034     XY       7.8968     YY     -16.7603
        XZ      -2.8945     YZ      -0.0952     ZZ     -29.4465

             Standard Nuclear Orientation (Angstroms)
    I     Atom           X                Y                Z
 ----------------------------------------------------------------
    1      O      -0.3000771000     1.0478047000     0.3958903000
    2      C      -0.6602303000    -0.0916274000     0.3633526000
    3      O      -1.3863203000    -0.6138628000    -0.6108436000
    4      H      -0.3910542000    -0.8483749000     1.2117784000
    5      O      -0.1901252000    -1.9415639000     2.1326759000
    6      H      -0.7114638000    -2.6100800000     1.6552815000
    7      H      -1.5635054000    -1.5500099000    -0.4327243000
 ----------------------------------------------------------------

 Total job time:  3691.97s(wall), 28321.70s(cpu)
        *  Thank you very much for using Q-Chem.  Have a nice day.  *
