 Q-Chem 5.4, Q-Chem, Inc., Pleasanton, CA (2021)
 Q-Chem 5.4.1 for Intel X86 EM64T Linux

User input:
--------------------------------------------------------------
$molecule
0 2
O   -0.2779840    0.9808736    0.4617916
C   -0.6900011   -0.1620969    0.3527143
O   -1.4087758   -0.5160551   -0.7294780
H   -0.4122997   -0.9727942    1.2992235
O   -0.1226248   -1.8320755    2.1286212
H   -0.5651373   -2.7119559    2.0172490
H   -1.7259535   -1.3936100   -0.8147109
$end

$rem
BASIS = 6-311++G(2df,2p)
GUI = 2
JOB_TYPE = Frequency
METHOD = wB97M-V
SCF_ALGORITHM = DIIS_GDM
MAX_SCF_CYCLES = 400
SCF_CONVERGENCE = 6
THRESH = 11
SYMMETRY_IGNORE = 1
solvent_method = SMD
$end

--------------------------------------------------------------

   19    -265.5218850332      5.84e-07  Convergence criterion met
 Total energy in the final basis set =     -265.5141531557
   15    -265.5218627199      7.49e-07  Convergence criterion met
 Total energy in the final basis set =     -265.5141320210
   15    -265.5219068641      7.58e-07  Convergence criterion met
 Total energy in the final basis set =     -265.5141738134
   15    -265.5217931445      6.08e-07  Convergence criterion met
 Total energy in the final basis set =     -265.5140638701
   16    -265.5219747115      6.13e-07  Convergence criterion met
 Total energy in the final basis set =     -265.5142402596
   15    -265.5218936401      7.14e-07  Convergence criterion met
 Total energy in the final basis set =     -265.5141624410
   15    -265.5218760982      7.42e-07  Convergence criterion met
 Total energy in the final basis set =     -265.5141435440
   14    -265.5218687039      8.26e-07  Convergence criterion met
 Frequency:     -2006.89                -607.03                 194.30
 Force Cnst:      2.5067                 0.2558                 0.0932
 Red. Mass:       1.0563                 1.1783                 4.1908
 IR Intens:     8295.824                261.945                 19.997
 Frequency:       391.87                 425.33                 552.02
 Force Cnst:      0.1783                 0.3629                 0.3190
 Red. Mass:       1.9706                 3.4050                 1.7768
 IR Intens:      147.680                 71.818                 37.869
 Frequency:       633.53                 842.23                 943.55
 Force Cnst:      0.6842                 0.5012                 0.8519
 Red. Mass:       2.8935                 1.1993                 1.6240
 IR Intens:       57.784                 29.062                333.015
 Frequency:       950.52                1053.54                1347.10
 Force Cnst:      0.7345                 3.9458                 1.1348
 Red. Mass:       1.3798                 6.0337                 1.0614
 IR Intens:       29.137                700.550                 40.024
 Frequency:      1612.61                3495.73                4201.23
 Force Cnst:     15.7934                 7.6907                11.1101
 Red. Mass:      10.3079                 1.0682                 1.0684
 IR Intens:      748.433                290.689                340.818

 STANDARD THERMODYNAMIC QUANTITIES AT   298.15 K  AND     1.00 ATM

   This Molecule has  2 Imaginary Frequencies
   Zero point vibrational energy:       23.793 kcal/mol

   Atom    1 Element O  Has Mass   15.99491
   Atom    2 Element C  Has Mass   12.00000
   Atom    3 Element O  Has Mass   15.99491
   Atom    4 Element H  Has Mass    1.00783
   Atom    5 Element O  Has Mass   15.99491
   Atom    6 Element H  Has Mass    1.00783
   Atom    7 Element H  Has Mass    1.00783
   Molecular Mass:    63.008220 amu
   Principal axes and moments of inertia in amu*Bohr^2:
                             1           2           3
    Eigenvalues --      156.66373   411.13541   567.70938
          X               0.23580     0.49384     0.83697
          Y              -0.64334     0.72483    -0.24643
          Z               0.72836     0.48036    -0.48862
   Rotational Symmetry Number is   1
   The Molecule is an Asymmetric Top
   Translational Enthalpy:        0.889 kcal/mol
   Rotational Enthalpy:           0.889 kcal/mol
   Vibrational Enthalpy:         24.862 kcal/mol
   gas constant (RT):             0.592 kcal/mol
   Translational Entropy:        38.341  cal/mol.K
   Rotational Entropy:           25.106  cal/mol.K
   Vibrational Entropy:           5.501  cal/mol.K

   Total Enthalpy:               27.232 kcal/mol
   Total Entropy:                68.948  cal/mol.K
 Total job time:  1501.10s(wall), 5820.78s(cpu)
        *  Thank you very much for using Q-Chem.  Have a nice day.  *
 Q-Chem 5.4, Q-Chem, Inc., Pleasanton, CA (2021)
 Q-Chem 5.4.1 for Intel X86 EM64T Linux

User input:
--------------------------------------------------------------

$rem
JOBTYPE = ts
SCF_GUESS = read
GEOM_OPT_HESSIAN = read
MAX_SCF_CYCLES = 350
GEOM_OPT_DMAX = 60
GEOM_OPT_MAX_CYCLES = 250
METHOD = wB97M-v
BASIS = 6-311++G(2df,2p)
SCF_CONVERGENCE = 7
THRESH = 12
SCF_ALGORITHM = DIIS_GDM
solvent_method = SMD
$end

$molecule
read
$end
--------------------------------------------------------------

   20    -265.5285122320      8.72e-08  Convergence criterion met
 Total energy in the final basis set =     -265.5209464477
   20    -265.5285254407      5.60e-08  Convergence criterion met
 Total energy in the final basis set =     -265.5209510894
   20    -265.5285382191      5.13e-08  Convergence criterion met
 Total energy in the final basis set =     -265.5209539901
   20    -265.5285418198      5.54e-08  Convergence criterion met
 Total energy in the final basis set =     -265.5209541778
   19    -265.5285472966      9.26e-08  Convergence criterion met
 Total energy in the final basis set =     -265.5209518652
   20    -265.5285419105      7.08e-08  Convergence criterion met
 Total energy in the final basis set =     -265.5209543047

             Standard Nuclear Orientation (Angstroms)
    I     Atom           X                Y                Z
 ----------------------------------------------------------------
    1      O      -0.3000770874     1.0478047473     0.3958902538
    2      C      -0.6602303494    -0.0916273952     0.3633526434
    3      O      -1.3863203171    -0.6138627833    -0.6108435991
    4      H      -0.3910541717    -0.8483748658     1.2117783710
    5      O      -0.1901251656    -1.9415638866     2.1326759097
    6      H      -0.7114637516    -2.6100799517     1.6552814593
    7      H      -1.5635053571    -1.5500098646    -0.4327243381
 ----------------------------------------------------------------

   20    -265.5285424668      6.47e-08  Convergence criterion met
 Total energy in the final basis set =     -265.5209543791
 Final energy is   -265.520954379073
 **  OPTIMIZATION CONVERGED  **

                    Orbital Energies (a.u.)
 --------------------------------------------------------------

 Alpha MOs
 -- Occupied --
-19.4032 -19.3823 -19.3602 -10.5030  -1.2651  -1.1884  -1.1349  -0.7679
 -0.7130  -0.6066  -0.5873  -0.5849  -0.5410  -0.4956  -0.4576  -0.4540
 -0.3901

 Beta MOs
 -- Occupied --
-19.4019 -19.3626 -19.3574 -10.4988  -1.2607  -1.1832  -1.0846  -0.7595
 -0.6934  -0.5992  -0.5815  -0.5652  -0.5154  -0.4557  -0.4287  -0.4146

          Ground-State Mulliken Net Atomic Charges

     Atom                 Charge (a.u.)    Spin (a.u.)
  --------------------------------------------------------
      1 O                    -0.389595       0.090620
      2 C                     0.080757       0.175112
      3 O                    -0.260051       0.037644
      4 H                     0.398272      -0.019610
      5 O                    -0.508886       0.730547
      6 H                     0.336561      -0.010090
      7 H                     0.342940      -0.004224
  --------------------------------------------------------
  Sum of atomic charges =    -0.000000

                    Cartesian Multipole Moments
 -----------------------------------------------------------------
    Charge (ESU x 10^10)
                -0.0000
    Dipole Moment (Debye)
         X      -2.4784      Y      -5.3692      Z      -1.3456
       Tot       6.0648
    Quadrupole Moments (Debye-Ang)
        XX     -21.1542     XY       7.5916     YY     -17.2022
        XZ      -2.3139     YZ       1.1469     ZZ     -30.5827

 Total job time:  840.46s(wall), 3266.15s(cpu)
        *  Thank you very much for using Q-Chem.  Have a nice day.  *
