 Q-Chem 5.4, Q-Chem, Inc., Pleasanton, CA (2021)
 Q-Chem 5.4.1 for Intel X86 EM64T Linux

User input:
--------------------------------------------------------------
$molecule
0 1
C         1.2586432774   -0.2081886214   -0.3219697218
O         2.1314019660   -0.8536914097   -1.2300309302
C        -0.1584464849   -0.1527564395   -0.8867854678
O        -0.5784177572   -1.4548387329   -1.2495897420
O        -0.1193646521    0.6398375941   -2.0413330625
O         1.7542994185    1.0757314223   -0.0718764286
H         1.2441616434   -0.7356607663    0.6329671260
H         1.6923874475   -1.6597838994   -1.5324612381
H        -0.8342978727    0.2686384109   -0.1416587864
H        -0.9952153000   -1.8680994955   -0.4847333621
H        -1.0078735372    0.9646823916   -2.2234345061
H         1.5674784511    1.6169345455   -0.8512281803
$end

$rem
BASIS = 6-311++G(2df,2p)
GUI = 2
JOB_TYPE = Frequency
METHOD = wB97M-V
SOLVENT_METHOD = SMD
SCF_ALGORITHM = DIIS_GDM
MAX_SCF_CYCLES = 400
SCF_CONVERGENCE = 7
THRESH = 12
SYMMETRY_IGNORE = 1
$end
--------------------------------------------------------------

   13    -380.7608957922      4.07e-08  Convergence criterion met
 Total energy in the final basis set =     -380.7562743382
   11    -380.7608994726      9.86e-08  Convergence criterion met
 Total energy in the final basis set =     -380.7562734545
   11    -380.7608903317      9.90e-08  Convergence criterion met
 Total energy in the final basis set =     -380.7562732758
   11    -380.7609017706      9.90e-08  Convergence criterion met
 Total energy in the final basis set =     -380.7562731393
   11    -380.7608879298      9.94e-08  Convergence criterion met
 Total energy in the final basis set =     -380.7562733021
   11    -380.7608966526      9.93e-08  Convergence criterion met
 Total energy in the final basis set =     -380.7562732683
   11    -380.7608927962      9.82e-08  Convergence criterion met
 Total energy in the final basis set =     -380.7562731254
   11    -380.7608943019      9.87e-08  Convergence criterion met
 Total energy in the final basis set =     -380.7562742519
   11    -380.7608962836      9.89e-08  Convergence criterion met
 Total energy in the final basis set =     -380.7562742189
   11    -380.7608961142      9.92e-08  Convergence criterion met
 Total energy in the final basis set =     -380.7562743737
   11    -380.7608953570      9.90e-08  Convergence criterion met
 Total energy in the final basis set =     -380.7562741893
   11    -380.7608962412      9.89e-08  Convergence criterion met
 Total energy in the final basis set =     -380.7562739392
   11    -380.7608946038      9.94e-08  Convergence criterion met
 Total energy in the final basis set =     -380.7562739979
   11    -380.7608949424      9.87e-08  Convergence criterion met
 Total energy in the final basis set =     -380.7562737285
   11    -380.7608954503      9.91e-08  Convergence criterion met
 Total energy in the final basis set =     -380.7562737562

                    Orbital Energies (a.u.)
 --------------------------------------------------------------

 Alpha MOs
 -- Occupied --
-19.3515 -19.3487 -19.3476 -19.3417 -10.4462 -10.4430  -1.2202  -1.1867
 -1.1441  -1.1317  -0.8469  -0.7519  -0.6720  -0.6536  -0.6353  -0.6252
 -0.5643  -0.5240  -0.5007  -0.4794  -0.4594  -0.4522  -0.4315  -0.4088
 -0.3801

          Ground-State Mulliken Net Atomic Charges

     Atom                 Charge (a.u.)
  ----------------------------------------
      1 C                    -0.082774
      2 O                    -0.455810
      3 C                     0.023848
      4 O                    -0.462581
      5 O                    -0.440842
      6 O                    -0.415468
      7 H                     0.245704
      8 H                     0.323432
      9 H                     0.253552
     10 H                     0.333993
     11 H                     0.353079
     12 H                     0.323868
  ----------------------------------------
  Sum of atomic charges =     0.000000

                    Cartesian Multipole Moments
 -----------------------------------------------------------------
    Charge (ESU x 10^10)
                 0.0000
    Dipole Moment (Debye)
         X      -5.6069      Y      -0.7926      Z       1.8252
       Tot       5.9496
    Quadrupole Moments (Debye-Ang)
        XX     -44.0549     XY      -2.1846     YY     -31.0188
        XZ       3.4380     YZ      -5.5742     ZZ     -41.4893

             Standard Nuclear Orientation (Angstroms)
    I     Atom           X                Y                Z
 ----------------------------------------------------------------
    1      C       1.2586432774    -0.2081886214    -0.3219697218
    2      O       2.1314019660    -0.8536914097    -1.2300309302
    3      C      -0.1584464849    -0.1527564395    -0.8867854678
    4      O      -0.5784177572    -1.4548387329    -1.2495897420
    5      O      -0.1193646521     0.6398375941    -2.0413330625
    6      O       1.7542994185     1.0757314223    -0.0718764286
    7      H       1.2441616434    -0.7356607663     0.6329671260
    8      H       1.6923874475    -1.6597838994    -1.5324612381
    9      H      -0.8342978727     0.2686384109    -0.1416587864
   10      H      -0.9952153000    -1.8680994955    -0.4847333621
   11      H      -1.0078735372     0.9646823916    -2.2234345061
   12      H       1.5674784511     1.6169345455    -0.8512281803
 ----------------------------------------------------------------

 Frequency:        94.69                 149.55                 236.39
 Force Cnst:      0.0258                 0.0148                 0.0812
 Red. Mass:       4.8824                 1.1243                 2.4651
 IR Intens:       39.496                 95.113                 62.632
 Frequency:       265.91                 289.31                 304.41
 Force Cnst:      0.1083                 0.0741                 0.0690
 Red. Mass:       2.5986                 1.5025                 1.2647
 IR Intens:       82.933                182.998                180.568
 Frequency:       381.56                 445.72                 526.75
 Force Cnst:      0.1105                 0.4717                 0.7946
 Red. Mass:       1.2884                 4.0302                 4.8606
 IR Intens:      190.843                 72.363                 41.229
 Frequency:       599.38                 763.09                 901.52
 Force Cnst:      1.1771                 1.4044                 1.4445
 Red. Mass:       5.5610                 4.0935                 3.0166
 IR Intens:       26.622                 73.438                 18.252
 Frequency:      1107.58                1141.67                1183.34
 Force Cnst:      1.3478                 1.2086                 1.4004
 Red. Mass:       1.8648                 1.5739                 1.6975
 IR Intens:       11.790                236.955                 62.425
 Frequency:      1201.65                1222.01                1262.53
 Force Cnst:      1.6276                 1.5821                 1.6521
 Red. Mass:       1.9131                 1.7982                 1.7592
 IR Intens:      260.320                380.048                216.557
 Frequency:      1305.55                1358.66                1386.15
 Force Cnst:      1.6952                 1.7944                 1.4390
 Red. Mass:       1.6881                 1.6499                 1.2712
 IR Intens:      135.894                 82.584                 37.549
 Frequency:      1416.78                1449.69                1492.04
 Force Cnst:      1.6358                 1.8500                 2.6192
 Red. Mass:       1.3832                 1.4941                 1.9969
 IR Intens:       62.922                 40.857                 33.795
 Frequency:      3081.69                3091.36                3772.51
 Force Cnst:      6.0814                 6.1290                 8.9347
 Red. Mass:       1.0869                 1.0885                 1.0655
 IR Intens:       20.937                 91.222                139.634
 Frequency:      3787.72                3826.74                3831.99
 Force Cnst:      9.0062                 9.2016                 9.2304
 Red. Mass:       1.0655                 1.0665                 1.0669
 IR Intens:      145.146                150.011                158.834

 STANDARD THERMODYNAMIC QUANTITIES AT   298.15 K  AND     1.00 ATM

   This Molecule has  0 Imaginary Frequencies
   Zero point vibrational energy:       59.867 kcal/mol

   Atom    1 Element C  Has Mass   12.00000
   Atom    2 Element O  Has Mass   15.99491
   Atom    3 Element C  Has Mass   12.00000
   Atom    4 Element O  Has Mass   15.99491
   Atom    5 Element O  Has Mass   15.99491
   Atom    6 Element O  Has Mass   15.99491
   Atom    7 Element H  Has Mass    1.00783
   Atom    8 Element H  Has Mass    1.00783
   Atom    9 Element H  Has Mass    1.00783
   Atom   10 Element H  Has Mass    1.00783
   Atom   11 Element H  Has Mass    1.00783
   Atom   12 Element H  Has Mass    1.00783
   Molecular Mass:    94.026620 amu
   Principal axes and moments of inertia in amu*Bohr^2:
                             1           2           3
    Eigenvalues --      357.48302   586.17427   726.09007
          X               0.84776    -0.37908    -0.37095
          Y               0.39154     0.91909    -0.04443
          Z               0.35778    -0.10757     0.92759
   Rotational Symmetry Number is   1
   The Molecule is an Asymmetric Top
   Translational Enthalpy:        0.889 kcal/mol
   Rotational Enthalpy:           0.889 kcal/mol
   Vibrational Enthalpy:         62.670 kcal/mol
   gas constant (RT):             0.592 kcal/mol
   Translational Entropy:        39.534  cal/mol.K
   Rotational Entropy:           26.523  cal/mol.K
   Vibrational Entropy:          16.206  cal/mol.K

   Total Enthalpy:               65.040 kcal/mol
   Total Entropy:                82.262  cal/mol.K
 Total job time:  6115.64s(wall), 40111.07s(cpu)
        *  Thank you very much for using Q-Chem.  Have a nice day.  *
