 Q-Chem 5.4, Q-Chem, Inc., Pleasanton, CA (2021)
 Q-Chem 5.4.1 for Intel X86 EM64T Linux

User input:
--------------------------------------------------------------
$molecule
0 1
C         1.2515829227   -0.2064934823   -0.2914688211
O         2.0968210278   -0.9119840878   -1.1799574863
C        -0.1609673451   -0.1445771774   -0.8776082468
O        -0.5673284159   -1.4366779172   -1.2954352969
O        -0.0827505422    0.6685763606   -2.0178112814
O         1.7613698471    1.0832757114   -0.0929703513
H         1.2284451384   -0.6913274560    0.6921227537
H         1.5378274526   -1.6123186636   -1.5653899440
H        -0.8614411744    0.2643702296   -0.1405478986
H        -0.8242177097   -1.9374785094   -0.5022074422
H        -0.9781633759    0.9847548129   -2.2201445946
H         1.5535787744    1.5726851789   -0.9107156904
$end

$rem
BASIS = 6-311++G(2df,2p)
GUI = 2
JOB_TYPE = Optimization
METHOD = wB97M-V
SCF_ALGORITHM = DIIS_GDM
MAX_SCF_CYCLES = 400
GEOM_OPT_MAX_CYCLES = 150
SCF_CONVERGENCE = 7
THRESH = 12
Solvent_method = SMD
$end
--------------------------------------------------------------

   13    -380.7599363253      3.62e-08  Convergence criterion met
 Total energy in the final basis set =     -380.7554445641
   12    -380.7606495843      2.51e-08  Convergence criterion met
 Total energy in the final basis set =     -380.7561022518
   12    -380.7607451221      2.32e-08  Convergence criterion met
 Total energy in the final basis set =     -380.7561645198
   12    -380.7607845407      2.26e-08  Convergence criterion met
 Total energy in the final basis set =     -380.7561926925
   12    -380.7608514617      2.46e-08  Convergence criterion met
 Total energy in the final basis set =     -380.7562384077
   12    -380.7608721610      2.47e-08  Convergence criterion met
 Total energy in the final basis set =     -380.7562527731
   12    -380.7608794025      2.45e-08  Convergence criterion met
 Total energy in the final basis set =     -380.7562604255
   12    -380.7608851388      2.46e-08  Convergence criterion met
 Total energy in the final basis set =     -380.7562651779
   12    -380.7608907868      2.58e-08  Convergence criterion met
 Total energy in the final basis set =     -380.7562702557
   12    -380.7608943328      2.70e-08  Convergence criterion met
 Total energy in the final basis set =     -380.7562727814
   12    -380.7608950504      2.75e-08  Convergence criterion met
 Total energy in the final basis set =     -380.7562738464

             Standard Nuclear Orientation (Angstroms)
    I     Atom           X                Y                Z
 ----------------------------------------------------------------
    1      C       1.2586432774    -0.2081886214    -0.3219697218
    2      O       2.1314019660    -0.8536914097    -1.2300309302
    3      C      -0.1584464849    -0.1527564395    -0.8867854678
    4      O      -0.5784177572    -1.4548387329    -1.2495897420
    5      O      -0.1193646521     0.6398375941    -2.0413330625
    6      O       1.7542994185     1.0757314223    -0.0718764286
    7      H       1.2441616434    -0.7356607663     0.6329671260
    8      H       1.6923874475    -1.6597838994    -1.5324612381
    9      H      -0.8342978727     0.2686384109    -0.1416587864
   10      H      -0.9952153000    -1.8680994955    -0.4847333621
   11      H      -1.0078735372     0.9646823916    -2.2234345061
   12      H       1.5674784511     1.6169345455    -0.8512281803
 ----------------------------------------------------------------

   12    -380.7608957920      2.77e-08  Convergence criterion met
 Total energy in the final basis set =     -380.7562743381
 Final energy is   -380.756274338058
 **  OPTIMIZATION CONVERGED  **

                    Orbital Energies (a.u.)
 --------------------------------------------------------------

 Alpha MOs
 -- Occupied --
-19.3515 -19.3486 -19.3476 -19.3417 -10.4462 -10.4430  -1.2202  -1.1867
 -1.1441  -1.1317  -0.8470  -0.7520  -0.6720  -0.6536  -0.6353  -0.6252
 -0.5644  -0.5240  -0.5007  -0.4794  -0.4594  -0.4522  -0.4315  -0.4088
 -0.3801

          Ground-State Mulliken Net Atomic Charges

     Atom                 Charge (a.u.)
  ----------------------------------------
      1 C                    -0.082904
      2 O                    -0.455794
      3 C                     0.023954
      4 O                    -0.462571
      5 O                    -0.440834
      6 O                    -0.415251
      7 H                     0.245714
      8 H                     0.323434
      9 H                     0.253550
     10 H                     0.333987
     11 H                     0.353067
     12 H                     0.323648
  ----------------------------------------
  Sum of atomic charges =     0.000000

                    Cartesian Multipole Moments
 -----------------------------------------------------------------
    Charge (ESU x 10^10)
                 0.0000
    Dipole Moment (Debye)
         X      -5.6071      Y      -0.7925      Z       1.8268
       Tot       5.9501
    Quadrupole Moments (Debye-Ang)
        XX     -44.0546     XY      -2.1847     YY     -31.0171
        XZ       3.4401     YZ      -5.5714     ZZ     -41.4924

 Total job time:  1089.98s(wall), 6804.66s(cpu)
        *  Thank you very much for using Q-Chem.  Have a nice day.  *
