 Q-Chem 5.4, Q-Chem, Inc., Pleasanton, CA (2021)
 Q-Chem 5.4.1 for Intel X86 EM64T Linux

User input:
--------------------------------------------------------------
$molecule
-1 1
O    0.1385969    1.4095324    1.6536379
H    0.5818058    0.7878876    2.2362039
$end

$rem
BASIS = 6-311++G(2df,2p)
GUI = 2
JOB_TYPE = Frequency
METHOD = wB97M-V
SOLVENT_METHOD = SMD
SCF_ALGORITHM = DIIS_GDM
MAX_SCF_CYCLES = 400
SCF_CONVERGENCE = 7
THRESH = 12
$end
--------------------------------------------------------------

   10     -75.9488802924      2.65e-08  Convergence criterion met
 Total energy in the final basis set =      -75.9477151282
   11     -75.9488792727      2.45e-08  Convergence criterion met
 Total energy in the final basis set =      -75.9477145082
   11     -75.9488809092      2.47e-08  Convergence criterion met
 Total energy in the final basis set =      -75.9477153450
   11     -75.9488808398      2.47e-08  Convergence criterion met
 Total energy in the final basis set =      -75.9477151147
   11     -75.9488789474      2.44e-08  Convergence criterion met
 Total energy in the final basis set =      -75.9477143440
   11     -75.9488791851      2.45e-08  Convergence criterion met
 Total energy in the final basis set =      -75.9477145464
   11     -75.9488806987      2.47e-08  Convergence criterion met
 Total energy in the final basis set =      -75.9477150088
   11     -75.9488809092      2.46e-08  Convergence criterion met
 Total energy in the final basis set =      -75.9477153450
   11     -75.9488792727      2.45e-08  Convergence criterion met
 Total energy in the final basis set =      -75.9477145082
   11     -75.9488789474      2.45e-08  Convergence criterion met
 Total energy in the final basis set =      -75.9477143440
   11     -75.9488808398      2.47e-08  Convergence criterion met
 Total energy in the final basis set =      -75.9477151148
   11     -75.9488806987      2.46e-08  Convergence criterion met
 Total energy in the final basis set =      -75.9477150088
   11     -75.9488791851      2.45e-08  Convergence criterion met
 Total energy in the final basis set =      -75.9477145464

                    Orbital Energies (a.u.)
 --------------------------------------------------------------

 Alpha MOs
 -- Occupied --
-19.2280  -0.9883  -0.4682  -0.3361  -0.3361

          Ground-State Mulliken Net Atomic Charges

     Atom                 Charge (a.u.)
  ----------------------------------------
      1 O                    -1.281089
      2 H                     0.281089
  ----------------------------------------
  Sum of atomic charges =    -1.000000

                    Cartesian Multipole Moments
 -----------------------------------------------------------------
    Charge (ESU x 10^10)
                -4.8032
    Dipole Moment (Debye)
         X       0.1437      Y      -7.9052      Z      -6.8809
       Tot      10.4814
    Quadrupole Moments (Debye-Ang)
        XX      -9.0098     XY      -0.8246     YY     -21.2845
        XZ       1.1986     YZ     -12.7168     ZZ     -18.3170

             Standard Nuclear Orientation (Angstroms)
    I     Atom           X                Y                Z
 ----------------------------------------------------------------
    1      O       0.1385969000     1.4095324000     1.6536379000
    2      H       0.5818058000     0.7878876000     2.2362039000
 ----------------------------------------------------------------

 Frequency:      3861.14
 Force Cnst:      9.3732
 Red. Mass:       1.0671
 IR Intens:        0.037

 STANDARD THERMODYNAMIC QUANTITIES AT   298.15 K  AND     1.00 ATM

   This Molecule has  0 Imaginary Frequencies
   Zero point vibrational energy:        5.520 kcal/mol

 Q-Chem warning in module 0, line  397:

  SYM_IGNORE is turned on for a linear molecule

    We detect a C*h symmetry
   Atom    1 Element O  Has Mass   15.99491
   Atom    2 Element H  Has Mass    1.00783
   Molecular Mass:    17.002740 amu
   Principal axes and moments of inertia in amu*Bohr^2:
                             1           2           3
    Eigenvalues --       -0.00000     3.12249     3.12249
          X              -0.46151    -0.35216     0.81424
          Y               0.64732     0.49394     0.58052
          Z              -0.60662     0.79499     0.00000
   Rotational Symmetry Number is   1
   The Molecule is a Symmetric Top
   Translational Enthalpy:        0.889 kcal/mol
   Rotational Enthalpy:           0.889 kcal/mol
   Vibrational Enthalpy:          5.520 kcal/mol
   gas constant (RT):             0.592 kcal/mol
   Translational Entropy:        34.437  cal/mol.K
   Rotational Entropy:            6.706  cal/mol.K
   Vibrational Entropy:           0.000  cal/mol.K

   Total Enthalpy:                7.890 kcal/mol
   Total Entropy:                41.143  cal/mol.K
 Total job time:  65.75s(wall), 482.52s(cpu)
        *  Thank you very much for using Q-Chem.  Have a nice day.  *
