 Q-Chem 5.4, Q-Chem, Inc., Pleasanton, CA (2021)
 Q-Chem 5.4.1 for Intel X86 EM64T Linux

User input:
--------------------------------------------------------------
$molecule
-1 1
O         0.1361481966    1.4129669535    1.6504192838
H         0.5842545034    0.7844530465    2.2394225162
$end

$rem
BASIS = 6-311++G(2df,2p)
GUI = 2
JOB_TYPE = Optimization
METHOD = wB97M-V
SCF_ALGORITHM = DIIS_GDM
MAX_SCF_CYCLES = 400
GEOM_OPT_MAX_CYCLES = 150
SCF_CONVERGENCE = 7
THRESH = 12
Solvent_method = SMD
$end
--------------------------------------------------------------

   10     -75.9487906820      2.78e-08  Convergence criterion met
 Total energy in the final basis set =      -75.9476163795

             Standard Nuclear Orientation (Angstroms)
    I     Atom           X                Y                Z
 ----------------------------------------------------------------
    1      O       0.1385969138     1.4095323827     1.6536379449
    2      H       0.5818057862     0.7878876173     2.2362038551
 ----------------------------------------------------------------

   11     -75.9488802929      2.40e-08  Convergence criterion met
 Total energy in the final basis set =      -75.9477151288
 Final energy is   -75.9477151287778
 **  OPTIMIZATION CONVERGED  **

                    Orbital Energies (a.u.)
 --------------------------------------------------------------

 Alpha MOs
 -- Occupied --
-19.2281  -0.9882  -0.4681  -0.3361  -0.3361

          Ground-State Mulliken Net Atomic Charges

     Atom                 Charge (a.u.)
  ----------------------------------------
      1 O                    -1.281104
      2 H                     0.281104
  ----------------------------------------
  Sum of atomic charges =    -1.000000

                    Cartesian Multipole Moments
 -----------------------------------------------------------------
    Charge (ESU x 10^10)
                -4.8032
    Dipole Moment (Debye)
         X       0.1431      Y      -7.9044      Z      -6.8798
       Tot      10.4800
    Quadrupole Moments (Debye-Ang)
        XX      -9.0112     XY      -0.8246     YY     -21.2839
        XZ       1.1985     YZ     -12.7151     ZZ     -18.3114

 Total job time:  15.63s(wall), 24.03s(cpu)
        *  Thank you very much for using Q-Chem.  Have a nice day.  *
