 Q-Chem 5.4, Q-Chem, Inc., Pleasanton, CA (2021)
 Q-Chem 5.4.1 for Intel X86 EM64T Linux

User input:
--------------------------------------------------------------
$molecule
0 1
C         0.6315991465    0.2477079889    0.0000033321
O        -0.1135024584    1.1967886302    0.0002458748
C         2.1481280727    0.4392796677    0.0000297314
H         2.4626548454    1.4901100069    0.0001486280
O         2.9119595448   -0.4867043651   -0.0000348933
O         0.2708823096   -1.0243151281    0.0000094324
H        -0.6985185606   -1.0862441004    0.0001453947
$end

$rem
BASIS = 6-311++G(2df,2p)
GUI = 2
JOB_TYPE = Frequency
METHOD = wB97M-V
SOLVENT_METHOD = SMD
SCF_ALGORITHM = DIIS_GDM
MAX_SCF_CYCLES = 400
SCF_CONVERGENCE = 7
THRESH = 12
SYMMETRY_IGNORE = 1
$end
--------------------------------------------------------------

   14    -303.1175912825      7.03e-08  Convergence criterion met
 Total energy in the final basis set =     -303.1091447208
   14    -303.1175844421      4.21e-08  Convergence criterion met
 Total energy in the final basis set =     -303.1091434860
   14    -303.1175954446      4.80e-08  Convergence criterion met
 Total energy in the final basis set =     -303.1091432944
   14    -303.1175860402      4.32e-08  Convergence criterion met
 Total energy in the final basis set =     -303.1091431479
   14    -303.1175936012      4.30e-08  Convergence criterion met
 Total energy in the final basis set =     -303.1091434473
   14    -303.1175910235      9.73e-08  Convergence criterion met
 Total energy in the final basis set =     -303.1091444635
   15    -303.1175909109      4.08e-08  Convergence criterion met
 Total energy in the final basis set =     -303.1091443517
   14    -303.1175922332      9.90e-08  Convergence criterion met
 Total energy in the final basis set =     -303.1091446356
   14    -303.1175912285      8.87e-08  Convergence criterion met
 Total energy in the final basis set =     -303.1091446690
   14    -303.1175896903      5.54e-08  Convergence criterion met
 Total energy in the final basis set =     -303.1091437517
   14    -303.1175910979      4.34e-08  Convergence criterion met
 Total energy in the final basis set =     -303.1091439131
   14    -303.1175907115      4.53e-08  Convergence criterion met
 Total energy in the final basis set =     -303.1091446662
   14    -303.1175916677      4.38e-08  Convergence criterion met
 Total energy in the final basis set =     -303.1091445892
   14    -303.1175912599      4.46e-08  Convergence criterion met
 Total energy in the final basis set =     -303.1091446979
   14    -303.1175912634      4.44e-08  Convergence criterion met
 Total energy in the final basis set =     -303.1091447015

                    Orbital Energies (a.u.)
 --------------------------------------------------------------

 Alpha MOs
 -- Occupied --
-19.3983 -19.3728 -19.3535 -10.5033 -10.4626  -1.2670  -1.2170  -1.1779
 -0.8398  -0.7350  -0.6374  -0.6286  -0.5975  -0.5954  -0.5356  -0.5206
 -0.4532  -0.4489  -0.3859

          Ground-State Mulliken Net Atomic Charges

     Atom                 Charge (a.u.)
  ----------------------------------------
      1 C                     0.324083
      2 O                    -0.448160
      3 C                     0.177496
      4 H                     0.195331
      5 O                    -0.323209
      6 O                    -0.297194
      7 H                     0.371653
  ----------------------------------------
  Sum of atomic charges =     0.000000

                    Cartesian Multipole Moments
 -----------------------------------------------------------------
    Charge (ESU x 10^10)
                 0.0000
    Dipole Moment (Debye)
         X      -1.5791      Y       0.1130      Z      -0.0023
       Tot       1.5831
    Quadrupole Moments (Debye-Ang)
        XX     -32.9081     XY      10.0194     YY     -30.9324
        XZ       0.0025     YZ       0.0014     ZZ     -26.9061

             Standard Nuclear Orientation (Angstroms)
    I     Atom           X                Y                Z
 ----------------------------------------------------------------
    1      C       0.6315991465     0.2477079889     0.0000033321
    2      O      -0.1135024584     1.1967886302     0.0002458748
    3      C       2.1481280727     0.4392796677     0.0000297314
    4      H       2.4626548454     1.4901100069     0.0001486280
    5      O       2.9119595448    -0.4867043651    -0.0000348933
    6      O       0.2708823096    -1.0243151281     0.0000094324
    7      H      -0.6985185606    -1.0862441004     0.0001453947
 ----------------------------------------------------------------

 Frequency:        93.87                 274.98                 505.90
 Force Cnst:      0.0183                 0.3736                 1.2550
 Red. Mass:       3.5259                 8.3865                 8.3226
 IR Intens:       33.520                 18.845                 34.223
 Frequency:       527.52                 647.31                 652.48
 Force Cnst:      0.2401                 1.1085                 0.5081
 Red. Mass:       1.4646                 4.4900                 2.0255
 IR Intens:       74.267                161.388                168.626
 Frequency:       882.03                1037.36                1175.03
 Force Cnst:      2.3047                 1.2232                 1.5680
 Red. Mass:       5.0281                 1.9293                 1.9276
 IR Intens:       61.859                  6.927                309.111
 Frequency:      1373.21                1391.49                1760.81
 Force Cnst:      1.3275                 3.6186                20.8066
 Red. Mass:       1.1948                 3.1720                11.3901
 IR Intens:       26.710                 88.738                948.031
 Frequency:      1824.49                3059.10                3731.89
 Force Cnst:     19.9585                 6.0205                 8.7383
 Red. Mass:      10.1764                 1.0919                 1.0649
 IR Intens:       57.221                 40.802                243.055

 STANDARD THERMODYNAMIC QUANTITIES AT   298.15 K  AND     1.00 ATM

   This Molecule has  0 Imaginary Frequencies
   Zero point vibrational energy:       27.072 kcal/mol

   Atom    1 Element C  Has Mass   12.00000
   Atom    2 Element O  Has Mass   15.99491
   Atom    3 Element C  Has Mass   12.00000
   Atom    4 Element H  Has Mass    1.00783
   Atom    5 Element O  Has Mass   15.99491
   Atom    6 Element O  Has Mass   15.99491
   Atom    7 Element H  Has Mass    1.00783
   Molecular Mass:    74.000390 amu
   Principal axes and moments of inertia in amu*Bohr^2:
                             1           2           3
    Eigenvalues --      163.52752   399.57505   563.10256
          X               0.96935     0.24568     0.00004
          Y              -0.24568     0.96935    -0.00008
          Z              -0.00006     0.00007     1.00000
   Rotational Symmetry Number is   1
   The Molecule is an Asymmetric Top
   Translational Enthalpy:        0.889 kcal/mol
   Rotational Enthalpy:           0.889 kcal/mol
   Vibrational Enthalpy:         28.340 kcal/mol
   gas constant (RT):             0.592 kcal/mol
   Translational Entropy:        38.820  cal/mol.K
   Rotational Entropy:           25.112  cal/mol.K
   Vibrational Entropy:           7.443  cal/mol.K

   Total Enthalpy:               30.709 kcal/mol
   Total Entropy:                71.376  cal/mol.K
 Total job time:  1056.38s(wall), 8109.40s(cpu)
        *  Thank you very much for using Q-Chem.  Have a nice day.  *
