 Q-Chem 5.4, Q-Chem, Inc., Pleasanton, CA (2021)
 Q-Chem 5.4.1 for Intel X86 EM64T Linux

User input:
--------------------------------------------------------------
$molecule
0 1
C         0.6312017320    0.2514537210   -0.0001184078
O        -0.1244221505    1.1990279617    0.0002467514
C         2.1470810747    0.4402522358    0.0000203734
H         2.4663298468    1.4939627397    0.0002275960
O         2.9105378457   -0.4956177212   -0.0000633232
O         0.2798324456   -1.0314918229    0.0000284258
H        -0.6973578943   -1.0809644141    0.0002060844
$end

$rem
BASIS = 6-311++G(2df,2p)
GUI = 2
JOB_TYPE = Optimization
METHOD = wB97M-V
SCF_ALGORITHM = DIIS_GDM
MAX_SCF_CYCLES = 400
GEOM_OPT_MAX_CYCLES = 150
SCF_CONVERGENCE = 7
THRESH = 12
Solvent_method = SMD
$end
--------------------------------------------------------------

   13    -303.1172100774      9.35e-08  Convergence criterion met
 Total energy in the final basis set =     -303.1088499436
   15    -303.1175538302      3.65e-08  Convergence criterion met
 Total energy in the final basis set =     -303.1091307684
   15    -303.1175718425      3.29e-08  Convergence criterion met
 Total energy in the final basis set =     -303.1091328097
   15    -303.1174817355      5.73e-08  Convergence criterion met
 Total energy in the final basis set =     -303.1089996972
   15    -303.1175822264      4.42e-08  Convergence criterion met
 Total energy in the final basis set =     -303.1091306246
   14    -303.1174781305      3.89e-08  Convergence criterion met
 Total energy in the final basis set =     -303.1090570883

             Standard Nuclear Orientation (Angstroms)
    I     Atom           X                Y                Z
 ----------------------------------------------------------------
    1      C       0.6315991465     0.2477079889     0.0000033321
    2      O      -0.1135024584     1.1967886302     0.0002458748
    3      C       2.1481280727     0.4392796677     0.0000297314
    4      H       2.4626548454     1.4901100069     0.0001486280
    5      O       2.9119595448    -0.4867043651    -0.0000348933
    6      O       0.2708823096    -1.0243151281     0.0000094324
    7      H      -0.6985185606    -1.0862441004     0.0001453947
 ----------------------------------------------------------------

   14    -303.1175912826      6.04e-08  Convergence criterion met
 Total energy in the final basis set =     -303.1091447209
 Final energy is   -303.109144720858
 **  OPTIMIZATION CONVERGED  **

                    Orbital Energies (a.u.)
 --------------------------------------------------------------

 Alpha MOs
 -- Occupied --
-19.3983 -19.3728 -19.3535 -10.5033 -10.4626  -1.2670  -1.2170  -1.1779
 -0.8398  -0.7350  -0.6374  -0.6286  -0.5975  -0.5954  -0.5356  -0.5206
 -0.4532  -0.4489  -0.3859

          Ground-State Mulliken Net Atomic Charges

     Atom                 Charge (a.u.)
  ----------------------------------------
      1 C                     0.324083
      2 O                    -0.448160
      3 C                     0.177496
      4 H                     0.195331
      5 O                    -0.323209
      6 O                    -0.297194
      7 H                     0.371653
  ----------------------------------------
  Sum of atomic charges =     0.000000

                    Cartesian Multipole Moments
 -----------------------------------------------------------------
    Charge (ESU x 10^10)
                 0.0000
    Dipole Moment (Debye)
         X      -1.5791      Y       0.1130      Z      -0.0001
       Tot       1.5831
    Quadrupole Moments (Debye-Ang)
        XX     -32.9081     XY      10.0194     YY     -30.9324
        XZ       0.0004     YZ      -0.0012     ZZ     -26.9061

 Total job time:  174.26s(wall), 1336.54s(cpu)
        *  Thank you very much for using Q-Chem.  Have a nice day.  *
