 Q-Chem 5.4, Q-Chem, Inc., Pleasanton, CA (2021)
 Q-Chem 5.4.1 for Intel X86 EM64T Linux

User input:
--------------------------------------------------------------
$molecule
0 2
C    0.6072590    0.0995536    0.2712973
O    1.4192511   -0.7394526    0.5581471
H   -2.1260617    1.1525979    0.6669314
C   -0.8871969   -0.2005200    0.1817492
O   -1.1409735   -1.4918036    0.0903525
O   -1.6789620    0.6859211   -0.2986864
O    0.9279556    1.3610303    0.0358978
H    0.1400538    1.8737466   -0.2114864
O   -1.2145785    0.1862517    2.0046042
O   -2.1040941    1.1019169    1.9304935
H   -2.0845900   -1.6251677   -0.0954806
$end

$rem
BASIS = 6-311++G(2df,2p)
GUI = 2
JOB_TYPE = Frequency
METHOD = wB97M-V
SOLVENT_METHOD = SMD
SCF_ALGORITHM = DIIS_GDM
MAX_SCF_CYCLES = 400
SCF_CONVERGENCE = 7
THRESH = 12
SYMMETRY_IGNORE = 1
$end

--------------------------------------------------------------

   21    -529.3047378455      6.07e-08  Convergence criterion met
 Total energy in the final basis set =     -529.2973384641
   19    -529.3047415577      6.53e-08  Convergence criterion met
 Total energy in the final basis set =     -529.2973370892
   19    -529.3047314074      6.74e-08  Convergence criterion met
 Total energy in the final basis set =     -529.2973371317
   19    -529.3047411104      6.56e-08  Convergence criterion met
 Total energy in the final basis set =     -529.2973371481
   19    -529.3047318260      6.54e-08  Convergence criterion met
 Total energy in the final basis set =     -529.2973371043
   19    -529.3047367953      6.81e-08  Convergence criterion met
 Total energy in the final basis set =     -529.2973380383
   19    -529.3047379769      6.49e-08  Convergence criterion met
 Total energy in the final basis set =     -529.2973379795
   19    -529.3047354588      6.80e-08  Convergence criterion met
 Frequency:      -978.18                  66.21                 107.78
 Force Cnst:      0.7725                 0.0215                 0.0769
 Red. Mass:       1.3703                 8.3280                11.2311
 IR Intens:      528.158                  9.540                  9.532
 Frequency:       195.48                 242.66                 290.12
 Force Cnst:      0.2643                 0.2848                 0.3663
 Red. Mass:      11.7388                 8.2103                 7.3867
 IR Intens:       17.534                 32.344                121.450
 Frequency:       406.09                 467.98                 487.73
 Force Cnst:      0.7124                 0.3140                 0.3015
 Red. Mass:       7.3322                 2.4334                 2.1513
 IR Intens:       44.878                207.150                211.762
 Frequency:       556.13                 571.72                 621.35
 Force Cnst:      0.2488                 0.4960                 1.2639
 Red. Mass:       1.3653                 2.5757                 5.5565
 IR Intens:      363.086                 54.761                 29.809
 Frequency:       679.78                 753.44                 838.32
 Force Cnst:      1.9712                 2.9872                 2.7200
 Red. Mass:       7.2399                 8.9312                 6.5691
 IR Intens:       57.155                 74.958                 72.648
 Frequency:       878.79                1018.74                1130.26
 Force Cnst:      3.1333                 0.6564                 2.3051
 Red. Mass:       6.8862                 1.0735                 3.0625
 IR Intens:      409.221                119.631                662.902
 Frequency:      1216.54                1291.19                1340.78
 Force Cnst:      1.4448                 1.8697                10.9090
 Red. Mass:       1.6569                 1.9034                10.2997
 IR Intens:       95.159                562.200                 87.543
 Frequency:      1437.27                1531.37                1812.74
 Force Cnst:      5.8257                 6.0301                19.0500
 Red. Mass:       4.7865                 4.3643                 9.8395
 IR Intens:        4.843                922.580                613.993
 Frequency:      1895.80                3705.46                3737.19
 Force Cnst:      2.2358                 8.6218                 8.7656
 Red. Mass:       1.0558                 1.0658                 1.0652
 IR Intens:      113.848                297.577                279.968

 STANDARD THERMODYNAMIC QUANTITIES AT   298.15 K  AND     1.00 ATM

   This Molecule has  1 Imaginary Frequencies
   Zero point vibrational energy:       39.000 kcal/mol

   Atom    1 Element C  Has Mass   12.00000
   Atom    2 Element O  Has Mass   15.99491
   Atom    3 Element H  Has Mass    1.00783
   Atom    4 Element C  Has Mass   12.00000
   Atom    5 Element O  Has Mass   15.99491
   Atom    6 Element O  Has Mass   15.99491
   Atom    7 Element O  Has Mass   15.99491
   Atom    8 Element H  Has Mass    1.00783
   Atom    9 Element O  Has Mass   15.99491
   Atom   10 Element O  Has Mass   15.99491
   Atom   11 Element H  Has Mass    1.00783
   Molecular Mass:   122.992950 amu
   Principal axes and moments of inertia in amu*Bohr^2:
                             1           2           3
    Eigenvalues --      620.34769   992.42886  1137.28607
          X               0.91677     0.28026     0.28460
          Y              -0.18932     0.93229    -0.30821
          Z              -0.35171     0.22868     0.90775
   Rotational Symmetry Number is   1
   The Molecule is an Asymmetric Top
   Translational Enthalpy:        0.889 kcal/mol
   Rotational Enthalpy:           0.889 kcal/mol
   Vibrational Enthalpy:         41.988 kcal/mol
   gas constant (RT):             0.592 kcal/mol
   Translational Entropy:        40.335  cal/mol.K
   Rotational Entropy:           28.039  cal/mol.K
   Vibrational Entropy:          17.996  cal/mol.K

   Total Enthalpy:               44.358 kcal/mol
   Total Entropy:                86.370  cal/mol.K
 Total job time:  4669.01s(wall), 68371.78s(cpu)
        *  Thank you very much for using Q-Chem.  Have a nice day.  *
 Q-Chem 5.4, Q-Chem, Inc., Pleasanton, CA (2021)
 Q-Chem 5.4.1 for Intel X86 EM64T Linux

User input:
--------------------------------------------------------------

$molecule
read
$end

$rem
JOBTYPE            rpath
SCF_GUESS          read
RPATH_MAX_CYCLES   30
BASIS = 6-311++G(2df,2p)
METHOD = wB97M-V
SOLVENT_METHOD = SMD
SCF_ALGORITHM = DIIS_GDM
SCF_CONVERGENCE = 7
THRESH = 12
$end
--------------------------------------------------------------

 Total energy in the final basis set =     -529.3083890449
   20    -529.3156243382      1.42e-08  Convergence criterion met
 Total energy in the final basis set =     -529.3087009317
   19    -529.3141513196      6.13e-08  Convergence criterion met
 Total energy in the final basis set =     -529.3075325540
   19    -529.3158257837      6.41e-08  Convergence criterion met
 Total energy in the final basis set =     -529.3089819267
   20    -529.3063485644      2.67e-08  Convergence criterion met
 Total energy in the final basis set =     -529.3001064618
   19    -529.3158234485      4.12e-08  Convergence criterion met
 Total energy in the final basis set =     -529.3090017528
   19    -529.3158357247      5.41e-08  Convergence criterion met
 Total energy in the final basis set =     -529.3090006924
   19    -529.3158347861      6.18e-08  Convergence criterion met
 Total energy in the final basis set =     -529.3090066876

                    Orbital Energies (a.u.)
 --------------------------------------------------------------

 Alpha MOs
 -- Occupied --
-19.4807 -19.4423 -19.4000 -19.3821 -19.3800 -19.3505 -10.5443 -10.5084
 -1.3749  -1.2736  -1.2449  -1.1940  -1.1741  -1.0164  -0.8466  -0.7546
 -0.7289  -0.7069  -0.6933  -0.6321  -0.6294  -0.6008  -0.5809  -0.5531
 -0.5254  -0.5162  -0.4942  -0.4734  -0.4532  -0.4334  -0.4131  -0.3968

 Beta MOs
 -- Occupied --
-19.4699 -19.4235 -19.4000 -19.3818 -19.3800 -19.3503 -10.5447 -10.5083
 -1.3505  -1.2715  -1.2430  -1.1937  -1.1738  -0.9830  -0.8391  -0.7540
 -0.7218  -0.7003  -0.6889  -0.6137  -0.6010  -0.5856  -0.5632  -0.5381
 -0.5214  -0.5127  -0.4872  -0.4710  -0.4520  -0.4177  -0.3931

          Ground-State Mulliken Net Atomic Charges

     Atom                 Charge (a.u.)    Spin (a.u.)
  --------------------------------------------------------
      1 C                     0.339661      -0.001924
      2 O                    -0.438657       0.006225
      3 H                     0.344071      -0.004896
      4 C                     0.258261      -0.006578
      5 O                    -0.372493       0.008902
      6 O                    -0.400989      -0.000605
      7 O                    -0.293250       0.000006
      8 H                     0.344511      -0.000024
      9 O                    -0.007965       0.329492
     10 O                    -0.137299       0.669061
     11 H                     0.364149       0.000342
  --------------------------------------------------------
  Sum of atomic charges =     0.000000

                    Cartesian Multipole Moments
 -----------------------------------------------------------------
    Charge (ESU x 10^10)
                 0.0000
    Dipole Moment (Debye)
         X      -5.6794      Y       2.9233      Z      -1.7748
       Tot       6.6296
    Quadrupole Moments (Debye-Ang)
        XX     -43.6302     XY       3.2286     YY     -42.1354
        XZ       0.0069     YZ       0.7671     ZZ     -50.8000

             Standard Nuclear Orientation (Angstroms)
    I     Atom           X                Y                Z
 ----------------------------------------------------------------
    1      C       0.6072590000     0.0995536000     0.2712973000
    2      O       1.4192511000    -0.7394526000     0.5581471000
    3      H      -2.1260617000     1.1525979000     0.6669314000
    4      C      -0.8871969000    -0.2005200000     0.1817492000
    5      O      -1.1409735000    -1.4918036000     0.0903525000
    6      O      -1.6789620000     0.6859211000    -0.2986864000
    7      O       0.9279556000     1.3610303000     0.0358978000
    8      H       0.1400538000     1.8737466000    -0.2114864000
    9      O      -1.2145785000     0.1862517000     2.0046042000
   10      O      -2.1040941000     1.1019169000     1.9304935000
   11      H      -2.0845900000    -1.6251677000    -0.0954806000
 ----------------------------------------------------------------

 Total job time:  6117.78s(wall), 89376.22s(cpu)
        *  Thank you very much for using Q-Chem.  Have a nice day.  *
