 Q-Chem 5.4, Q-Chem, Inc., Pleasanton, CA (2021)
 Q-Chem 5.4.1 for Intel X86 EM64T Linux

User input:
--------------------------------------------------------------
$molecule
-1 1
C         0.5976906250    0.1829920034    0.0003836046
O        -0.2116925879    1.0809780819    0.0002834213
C         2.1394850490    0.4145355110    0.0005056157
O         2.4827968949    1.6120878250    0.0005925006
O         2.8556453186   -0.6050976549    0.0004820653
O         0.2596265223   -1.1065494245    0.0003349708
H        -0.7087105219   -1.1729699418    0.0002458218
$end

$rem
BASIS = 6-311++G(3df,2p)
JOB_TYPE = SP
METHOD = wB97M-V
SCF_ALGORITHM = DIIS_GDM
MAX_SCF_CYCLES = 400
SCF_CONVERGENCE = 7
THRESH = 12
Solvent_method = SMD
$end
--------------------------------------------------------------

             Standard Nuclear Orientation (Angstroms)
    I     Atom           X                Y                Z
 ----------------------------------------------------------------
    1      C       0.5976906250     0.1829920034     0.0003836046
    2      O      -0.2116925879     1.0809780819     0.0002834213
    3      C       2.1394850490     0.4145355110     0.0005056157
    4      O       2.4827968949     1.6120878250     0.0005925006
    5      O       2.8556453186    -0.6050976549     0.0004820653
    6      O       0.2596265223    -1.1065494245     0.0003349708
    7      H      -0.7087105219    -1.1729699418     0.0002458218
 ----------------------------------------------------------------

   14    -377.9539699970      8.66e-08  Convergence criterion met
 Total energy in the final basis set =     -377.9449454507

                    Orbital Energies (a.u.)
 --------------------------------------------------------------

 Alpha MOs
 -- Occupied --
-19.3839 -19.3357 -19.2958 -19.2955 -10.4843 -10.4554  -1.2497  -1.1794
 -1.1587  -1.0929  -0.7969  -0.6727  -0.6173  -0.5938  -0.5834  -0.5419
 -0.5252  -0.5140  -0.4400  -0.4353  -0.3801  -0.3735  -0.3587

          Ground-State Mulliken Net Atomic Charges

     Atom                 Charge (a.u.)
  ----------------------------------------
      1 C                     0.755299
      2 O                    -0.752871
      3 C                     0.866621
      4 O                    -0.830710
      5 O                    -0.831867
      6 O                    -0.539462
      7 H                     0.332990
  ----------------------------------------
  Sum of atomic charges =    -1.000000

                    Cartesian Multipole Moments
 -----------------------------------------------------------------
    Charge (ESU x 10^10)
                -4.8032
    Dipole Moment (Debye)
         X     -13.1790      Y      -4.7785      Z      -0.0025
       Tot      14.0186
    Quadrupole Moments (Debye-Ang)
        XX     -71.7695     XY      -1.9833     YY     -49.3385
        XZ      -0.0071     YZ      -0.0022     ZZ     -33.8491

 Total job time:  72.65s(wall), 286.32s(cpu)
        *  Thank you very much for using Q-Chem.  Have a nice day.  *
