 Q-Chem 5.4, Q-Chem, Inc., Pleasanton, CA (2021)
 Q-Chem 5.4.1 for Intel X86 EM64T Linux

User input:
--------------------------------------------------------------
$molecule
0 2
O        -1.7005575682    1.7829465742    0.6678097587
H        -0.9876783031    2.4000545673    0.4231752626
$end

$rem
BASIS = def2-QZVP
JOB_TYPE = SP
METHOD = wB97M-V
SCF_ALGORITHM = DIIS_GDM
MAX_SCF_CYCLES = 400
SCF_CONVERGENCE = 7
THRESH = 12
Solvent_method = SMD
$end
--------------------------------------------------------------

             Standard Nuclear Orientation (Angstroms)
    I     Atom           X                Y                Z
 ----------------------------------------------------------------
    1      O      -1.7005575682     1.7829465742     0.6678097587
    2      H      -0.9876783031     2.4000545673     0.4231752626
 ----------------------------------------------------------------

   29     -75.7541265493      3.84e-08  Convergence criterion met
 Total energy in the final basis set =      -75.7529495618

                    Orbital Energies (a.u.)
 --------------------------------------------------------------

 Alpha MOs
 -- Occupied --
-19.3985  -1.1398  -0.5887  -0.5186  -0.4627

 Beta MOs
 -- Occupied --
-19.3742  -1.0685  -0.5590  -0.4306

          Ground-State Mulliken Net Atomic Charges

     Atom                 Charge (a.u.)    Spin (a.u.)
  --------------------------------------------------------
      1 O                    -0.315080       1.029141
      2 H                     0.315080      -0.029141
  --------------------------------------------------------
  Sum of atomic charges =    -0.000000

                    Cartesian Multipole Moments
 -----------------------------------------------------------------
    Charge (ESU x 10^10)
                -0.0000
    Dipole Moment (Debye)
         X       1.5504      Y       1.3422      Z      -0.5320
       Tot       2.1186
    Quadrupole Moments (Debye-Ang)
        XX     -10.6289     XY       1.8403     YY      -0.9972
        XZ       1.7099     YZ      -0.3387     ZZ      -6.2036

 Total job time:  21.17s(wall), 80.24s(cpu)
        *  Thank you very much for using Q-Chem.  Have a nice day.  *
