 Q-Chem 5.4, Q-Chem, Inc., Pleasanton, CA (2021)
 Q-Chem 5.4.1 for Intel X86 EM64T Linux

User input:
--------------------------------------------------------------
$molecule
0 2
O        -0.7265937369    0.9841477964    0.4577690803
C        -0.2402478792   -0.2480819922    0.2787714565
O        -1.0332743381   -1.2873550349    0.0253175921
C         1.1606206866   -0.4586142849    0.3412688524
O         1.9284314593    0.6167230263    0.6653942023
O         1.7012960441   -1.5446342061    0.1197841305
H        -1.6551020347    0.9778739983    0.7336224659
H        -1.9370777822   -1.0038659970   -0.1746886398
H         1.3743443810    1.3906540943    0.8401361600
$end

$rem
BASIS = 6-31G(d)
JOB_TYPE = SP
METHOD = wB97M-V
SCF_ALGORITHM = DIIS_GDM
MAX_SCF_CYCLES = 400
SCF_CONVERGENCE = 7
THRESH = 12
Solvent_method = SMD
$end
--------------------------------------------------------------

             Standard Nuclear Orientation (Angstroms)
    I     Atom           X                Y                Z
 ----------------------------------------------------------------
    1      O      -0.7265937369     0.9841477964     0.4577690803
    2      C      -0.2402478792    -0.2480819922     0.2787714565
    3      O      -1.0332743381    -1.2873550349     0.0253175921
    4      C       1.1606206866    -0.4586142849     0.3412688524
    5      O       1.9284314593     0.6167230263     0.6653942023
    6      O       1.7012960441    -1.5446342061     0.1197841305
    7      H      -1.6551020347     0.9778739983     0.7336224659
    8      H      -1.9370777822    -1.0038659970    -0.1746886398
    9      H       1.3743443810     1.3906540943     0.8401361600
 ----------------------------------------------------------------

   17    -378.7750643148      3.56e-08  Convergence criterion met
 Total energy in the final basis set =     -378.7667716020

                    Orbital Energies (a.u.)
 --------------------------------------------------------------

 Alpha MOs
 -- Occupied --
-19.4102 -19.4080 -19.3838 -19.3290 -10.4871 -10.4802  -1.2598  -1.2115
 -1.1856  -1.1304  -0.8651  -0.7227  -0.7135  -0.6712  -0.5997  -0.5790
 -0.5515  -0.5270  -0.5056  -0.4819  -0.4734  -0.4232  -0.3881  -0.2603

 Beta MOs
 -- Occupied --
-19.4071 -19.4045 -19.3828 -19.3238 -10.4792 -10.4787  -1.2514  -1.2073
 -1.1778  -1.1227  -0.8473  -0.7180  -0.7074  -0.6648  -0.5769  -0.5696
 -0.5446  -0.5106  -0.4996  -0.4765  -0.4464  -0.3986  -0.3807

          Ground-State Mulliken Net Atomic Charges

     Atom                 Charge (a.u.)    Spin (a.u.)
  --------------------------------------------------------
      1 O                    -0.619665       0.086083
      2 C                     0.465536       0.511171
      3 O                    -0.604048       0.101254
      4 C                     0.553405       0.074876
      5 O                    -0.650304       0.031293
      6 O                    -0.602263       0.198076
      7 H                     0.494789       0.001314
      8 H                     0.491263      -0.002504
      9 H                     0.471288      -0.001563
  --------------------------------------------------------
  Sum of atomic charges =     0.000000

                    Cartesian Multipole Moments
 -----------------------------------------------------------------
    Charge (ESU x 10^10)
                -0.0000
    Dipole Moment (Debye)
         X      -8.9730      Y       5.0076      Z       0.9164
       Tot      10.3165
    Quadrupole Moments (Debye-Ang)
        XX     -33.0190     XY       6.2356     YY     -39.0156
        XZ      -2.0692     YZ       2.4020     ZZ     -31.9890

 Total job time:  21.60s(wall), 82.81s(cpu)
        *  Thank you very much for using Q-Chem.  Have a nice day.  *
