 Q-Chem 5.4, Q-Chem, Inc., Pleasanton, CA (2021)
 Q-Chem 5.4.1 for Intel X86 EM64T Linux

User input:
--------------------------------------------------------------
$molecule
-1 2
C         0.0335825890    0.2156391192    0.2364698461
O         1.2001413651    0.0826017418    0.8943481755
H        -1.1277621868    1.3766541534   -0.6298194523
C        -0.8393693190   -0.8929137460   -0.0274891381
O        -0.5062190370   -2.0526716429    0.3744233366
O        -1.9104150558   -0.6008046154   -0.6669935653
O        -0.2722929998    1.4647120681   -0.1745756269
H         1.6345905442    0.9437645218    0.9577898244
$end

$rem
BASIS = 6-311++G(3df,2p)
JOB_TYPE = SP
METHOD = wB97M-V
SCF_ALGORITHM = DIIS_GDM
MAX_SCF_CYCLES = 400
SCF_CONVERGENCE = 7
THRESH = 12
Solvent_method = SMD
$end
--------------------------------------------------------------

             Standard Nuclear Orientation (Angstroms)
    I     Atom           X                Y                Z
 ----------------------------------------------------------------
    1      C       0.0335825890     0.2156391192     0.2364698461
    2      O       1.2001413651     0.0826017418     0.8943481755
    3      H      -1.1277621868     1.3766541534    -0.6298194523
    4      C      -0.8393693190    -0.8929137460    -0.0274891381
    5      O      -0.5062190370    -2.0526716429     0.3744233366
    6      O      -1.9104150558    -0.6008046154    -0.6669935653
    7      O      -0.2722929998     1.4647120681    -0.1745756269
    8      H       1.6345905442     0.9437645218     0.9577898244
 ----------------------------------------------------------------

   17    -378.4931638164      3.36e-08  Convergence criterion met
 Total energy in the final basis set =     -378.4852124333

                    Orbital Energies (a.u.)
 --------------------------------------------------------------

 Alpha MOs
 -- Occupied --
-19.3751 -19.3717 -19.2790 -19.2777 -10.4450 -10.4339  -1.2399  -1.1715
 -1.1520  -1.0661  -0.8207  -0.7052  -0.6677  -0.5847  -0.5812  -0.5297
 -0.5189  -0.5105  -0.4992  -0.4654  -0.3769  -0.3766  -0.3556  -0.2427

 Beta MOs
 -- Occupied --
-19.3719 -19.3685 -19.2765 -19.2751 -10.4352 -10.4333  -1.2313  -1.1645
 -1.1473  -1.0608  -0.8014  -0.6988  -0.6607  -0.5800  -0.5517  -0.5254
 -0.5146  -0.5064  -0.4817  -0.4395  -0.3707  -0.3558  -0.3523

          Ground-State Mulliken Net Atomic Charges

     Atom                 Charge (a.u.)    Spin (a.u.)
  --------------------------------------------------------
      1 C                     0.528065       0.602444
      2 O                    -0.643901       0.074775
      3 H                     0.349136      -0.001543
      4 C                     0.912094       0.072318
      5 O                    -0.917383       0.091761
      6 O                    -0.911084       0.087933
      7 O                    -0.657162       0.075006
      8 H                     0.340234      -0.002695
  --------------------------------------------------------
  Sum of atomic charges =    -1.000000

                    Cartesian Multipole Moments
 -----------------------------------------------------------------
    Charge (ESU x 10^10)
                -4.8032
    Dipole Moment (Debye)
         X       6.3506      Y       9.6240      Z       0.3486
       Tot      11.5357
    Quadrupole Moments (Debye-Ang)
        XX     -45.8749     XY      -5.4928     YY     -52.7330
        XZ      -2.4422     YZ       2.5625     ZZ     -38.1894

 Total job time:  114.24s(wall), 452.02s(cpu)
        *  Thank you very much for using Q-Chem.  Have a nice day.  *
