 Q-Chem 5.4, Q-Chem, Inc., Pleasanton, CA (2021)
 Q-Chem 5.4.1 for Intel X86 EM64T Linux

User input:
--------------------------------------------------------------
$molecule
0 2
C         0.5695364666    0.0119301795    0.6700025330
O         1.4789047047   -0.2444354264    1.4529369886
H        -1.5874791836   -0.0042416406   -0.8607253565
C        -0.5883875990   -0.8391455004    0.5767346309
O        -0.5918967654   -1.9098741433    1.3586140692
O        -1.6065446707   -0.7618225066   -0.2626693904
O         0.6742482200    1.1189624247   -0.0988121464
H        -0.1018849591    1.3272414999   -0.6326109051
O        -1.5183944077    0.8592388770    2.0550452789
O        -2.5615200239    1.1545408207    1.5113733859
H        -1.4004993818   -2.4225410845    1.2079938120
$end

$rem
BASIS = 6-311++G(2df,2p)
GUI = 2
JOB_TYPE = Frequency
METHOD = wB97M-V
SOLVENT_METHOD = SMD
SCF_ALGORITHM = DIIS_GDM
MAX_SCF_CYCLES = 400
SCF_CONVERGENCE = 7
THRESH = 12
UNRESTRICTED = 1
SYMMETRY_IGNORE = 1
$end
--------------------------------------------------------------

   29    -529.2777678608      7.96e-08  Convergence criterion met
 Total energy in the final basis set =     -529.2706013175
   22    -529.2777714695      3.66e-08  Convergence criterion met
 Total energy in the final basis set =     -529.2706003402
   22    -529.2777620443      3.66e-08  Convergence criterion met
 Total energy in the final basis set =     -529.2706001104
   22    -529.2777739219      3.61e-08  Convergence criterion met
 Total energy in the final basis set =     -529.2706005764
   22    -529.2777601735      3.74e-08  Convergence criterion met
 Total energy in the final basis set =     -529.2706004938
   22    -529.2777642309      3.61e-08  Convergence criterion met
 Total energy in the final basis set =     -529.2706005388
   22    -529.2777698005      3.75e-08  Convergence criterion met
 Total energy in the final basis set =     -529.2706004504
   22    -529.2777648006      3.65e-08  Convergence criterion met
 Total energy in the final basis set =     -529.2706010358
   22    -529.2777673858      3.60e-08  Convergence criterion met
 Total energy in the final basis set =     -529.2706011210
   22    -529.2777668139      3.76e-08  Convergence criterion met
 Total energy in the final basis set =     -529.2706006964
   22    -529.2777676490      3.71e-08  Convergence criterion met
 Total energy in the final basis set =     -529.2706006797
   22    -529.2777668116      3.68e-08  Convergence criterion met
 Total energy in the final basis set =     -529.2706009041
   22    -529.2777682818      3.72e-08  Convergence criterion met
 Total energy in the final basis set =     -529.2706011025
   22    -529.2777680691      3.69e-08  Convergence criterion met
 Total energy in the final basis set =     -529.2706013444
   22    -529.2777675196      3.69e-08  Convergence criterion met
 Total energy in the final basis set =     -529.2706011573

                    Orbital Energies (a.u.)
 --------------------------------------------------------------

 Alpha MOs
 -- Occupied --
-19.4761 -19.4651 -19.4051 -19.3943 -19.3841 -19.3235 -10.4948 -10.4915
 -1.4128  -1.2747  -1.2329  -1.1973  -1.1483  -0.9498  -0.8544  -0.7563
 -0.7428  -0.6837  -0.6656  -0.6581  -0.6484  -0.5847  -0.5813  -0.5511
 -0.5356  -0.5342  -0.5083  -0.4670  -0.4274  -0.4073  -0.3986  -0.3922

 Beta MOs
 -- Occupied --
-19.4480 -19.4377 -19.4074 -19.3970 -19.3848 -19.3276 -10.5017 -10.4924
 -1.3612  -1.2811  -1.2362  -1.2029  -1.1539  -0.8812  -0.8604  -0.7612
 -0.7453  -0.6870  -0.6390  -0.5998  -0.5898  -0.5648  -0.5544  -0.5541
 -0.5395  -0.5378  -0.5115  -0.4851  -0.4459  -0.4117  -0.2724

          Ground-State Mulliken Net Atomic Charges

     Atom                 Charge (a.u.)    Spin (a.u.)
  --------------------------------------------------------
      1 C                     0.272596      -0.086946
      2 O                    -0.520003      -0.145979
      3 H                     0.357556       0.002227
      4 C                     0.199016      -0.425985
      5 O                    -0.315935      -0.077713
      6 O                    -0.297504      -0.067880
      7 O                    -0.346582      -0.024520
      8 H                     0.336749       0.001206
      9 O                    -0.021164       0.913980
     10 O                    -0.040104       0.910385
     11 H                     0.375374       0.001227
  --------------------------------------------------------
  Sum of atomic charges =     0.000000

                    Cartesian Multipole Moments
 -----------------------------------------------------------------
    Charge (ESU x 10^10)
                 0.0000
    Dipole Moment (Debye)
         X      -6.5039      Y      -0.6487      Z      -5.7964
       Tot       8.7362
    Quadrupole Moments (Debye-Ang)
        XX     -51.0602     XY       3.6287     YY     -40.4715
        XZ      -3.7120     YZ      -3.3347     ZZ     -50.4138

             Standard Nuclear Orientation (Angstroms)
    I     Atom           X                Y                Z
 ----------------------------------------------------------------
    1      C       0.5695364666     0.0119301795     0.6700025330
    2      O       1.4789047047    -0.2444354264     1.4529369886
    3      H      -1.5874791836    -0.0042416406    -0.8607253565
    4      C      -0.5883875990    -0.8391455004     0.5767346309
    5      O      -0.5918967654    -1.9098741433     1.3586140692
    6      O      -1.6065446707    -0.7618225066    -0.2626693904
    7      O       0.6742482200     1.1189624247    -0.0988121464
    8      H      -0.1018849591     1.3272414999    -0.6326109051
    9      O      -1.5183944077     0.8592388770     2.0550452789
   10      O      -2.5615200239     1.1545408207     1.5113733859
   11      H      -1.4004993818    -2.4225410845     1.2079938120
 ----------------------------------------------------------------

 Frequency:      -241.95                  38.25                  88.13
 Force Cnst:      0.3515                 0.0087                 0.0349
 Red. Mass:      10.1913                10.0560                 7.6187
 IR Intens:      653.888                  5.368                 37.033
 Frequency:       103.33                 164.09                 187.50
 Force Cnst:      0.0616                 0.0532                 0.1597
 Red. Mass:       9.7925                 3.3525                 7.7076
 IR Intens:        0.604                 35.910                 26.720
 Frequency:       254.74                 283.38                 349.97
 Force Cnst:      0.0760                 0.1960                 0.1315
 Red. Mass:       1.9881                 4.1421                 1.8221
 IR Intens:      399.759                 26.617                191.044
 Frequency:       394.05                 406.92                 483.04
 Force Cnst:      0.1492                 0.1909                 0.4193
 Red. Mass:       1.6312                 1.9568                 3.0501
 IR Intens:      133.064                148.317                 20.069
 Frequency:       549.26                 615.48                 686.92
 Force Cnst:      1.0111                 1.1642                 2.2781
 Red. Mass:       5.6882                 5.2163                 8.1945
 IR Intens:        8.487                 22.144                 39.885
 Frequency:       820.55                1067.08                1153.33
 Force Cnst:      3.3363                 2.2742                 1.3501
 Red. Mass:       8.4103                 3.3899                 1.7226
 IR Intens:       65.917                563.562               1416.841
 Frequency:      1196.78                1281.50                1366.33
 Force Cnst:      2.0726                 1.4249                 2.8319
 Red. Mass:       2.4560                 1.4726                 2.5746
 IR Intens:     1420.693                698.032               1700.069
 Frequency:      1457.39                1554.94                1695.32
 Force Cnst:      3.4456                11.3499                14.0565
 Red. Mass:       2.7534                 7.9674                 8.3009
 IR Intens:      305.375                941.526                411.496
 Frequency:      3758.99                3807.56                3833.79
 Force Cnst:      8.8698                 9.1157                 9.2312
 Red. Mass:       1.0654                 1.0672                 1.0660
 IR Intens:      341.511                 94.692                301.978

 STANDARD THERMODYNAMIC QUANTITIES AT   298.15 K  AND     1.00 ATM

   This Molecule has  1 Imaginary Frequencies
   Zero point vibrational energy:       39.454 kcal/mol

   Atom    1 Element C  Has Mass   12.00000
   Atom    2 Element O  Has Mass   15.99491
   Atom    3 Element H  Has Mass    1.00783
   Atom    4 Element C  Has Mass   12.00000
   Atom    5 Element O  Has Mass   15.99491
   Atom    6 Element O  Has Mass   15.99491
   Atom    7 Element O  Has Mass   15.99491
   Atom    8 Element H  Has Mass    1.00783
   Atom    9 Element O  Has Mass   15.99491
   Atom   10 Element O  Has Mass   15.99491
   Atom   11 Element H  Has Mass    1.00783
   Molecular Mass:   122.992950 amu
   Principal axes and moments of inertia in amu*Bohr^2:
                             1           2           3
    Eigenvalues --      746.01699  1036.12734  1235.47190
          X               0.95107     0.26603     0.15717
          Y              -0.25704     0.96346    -0.07539
          Z              -0.17148     0.03130     0.98469
   Rotational Symmetry Number is   1
   The Molecule is an Asymmetric Top
   Translational Enthalpy:        0.889 kcal/mol
   Rotational Enthalpy:           0.889 kcal/mol
   Vibrational Enthalpy:         43.416 kcal/mol
   gas constant (RT):             0.592 kcal/mol
   Translational Entropy:        40.335  cal/mol.K
   Rotational Entropy:           28.348  cal/mol.K
   Vibrational Entropy:          25.920  cal/mol.K

   Total Enthalpy:               45.786 kcal/mol
   Total Entropy:                94.602  cal/mol.K
 Total job time:  7296.57s(wall), 56614.74s(cpu)
        *  Thank you very much for using Q-Chem.  Have a nice day.  *
