 Q-Chem 5.4, Q-Chem, Inc., Pleasanton, CA (2021)
 Q-Chem 5.4.1 for Intel X86 EM64T Linux

User input:
--------------------------------------------------------------
$molecule
0 2
C    0.5872603    0.0451744    0.6353025
O    1.4848503   -0.2339721    1.4176279
H   -1.5462678    0.0297673   -0.9093011
C   -0.6026559   -0.7780323    0.5800644
O   -0.6520186   -1.8666470    1.3422188
O   -1.5930165   -0.7107512   -0.2901049
O    0.7269977    1.1380600   -0.1367250
H   -0.0414875    1.3560126   -0.6793301
O   -1.5543136    0.6656948    2.0892506
O   -2.5640060    1.0305818    1.5221739
H   -1.4792600   -2.3860348    1.4067059
$end

$rem
BASIS = 6-311++G(2df,2p)
GUI = 2
JOB_TYPE = Frequency
METHOD = wB97M-V
SCF_ALGORITHM = DIIS_GDM
MAX_SCF_CYCLES = 400
SCF_CONVERGENCE = 6
THRESH = 11
SYMMETRY_IGNORE = 1
solvent_method = SMD
$end

--------------------------------------------------------------

   24    -529.2739751004      5.66e-07  Convergence criterion met
 Total energy in the final basis set =     -529.2666862956
   20    -529.2739973185      7.65e-07  Convergence criterion met
 Total energy in the final basis set =     -529.2667038619
   20    -529.2739508348      7.18e-07  Convergence criterion met
 Total energy in the final basis set =     -529.2666667044
   20    -529.2739784142      7.79e-07  Convergence criterion met
 Total energy in the final basis set =     -529.2666831879
   20    -529.2739702148      7.08e-07  Convergence criterion met
 Total energy in the final basis set =     -529.2666878926
   20    -529.2739878529      7.96e-07  Convergence criterion met
 Total energy in the final basis set =     -529.2667018033
   20    -529.2739605974      7.33e-07  Convergence criterion met
 Total energy in the final basis set =     -529.2666690822
   20    -529.2739708967      7.74e-07  Convergence criterion met
 Frequency:      -610.29                -117.63                  72.69
 Force Cnst:      2.7715                 0.1180                 0.0255
 Red. Mass:      12.6296                14.4738                 8.1917
 IR Intens:     6905.398                  5.677                 56.090
 Frequency:       107.95                 149.78                 212.96
 Force Cnst:      0.0670                 0.0658                 0.3072
 Red. Mass:       9.7649                 4.9759                11.4952
 IR Intens:        8.167                 63.438                 12.344
 Frequency:       283.45                 327.16                 364.91
 Force Cnst:      0.1786                 0.1241                 0.0867
 Red. Mass:       3.7726                 1.9672                 1.1051
 IR Intens:      154.695                366.964                 25.431
 Frequency:       399.28                 414.96                 486.80
 Force Cnst:      0.3413                 0.1821                 0.3275
 Red. Mass:       3.6338                 1.7945                 2.3455
 IR Intens:      389.859                396.224                 21.598
 Frequency:       548.44                 636.52                 695.21
 Force Cnst:      1.0531                 1.1530                 2.3366
 Red. Mass:       5.9422                 4.8301                 8.2055
 IR Intens:       14.149                 28.381                178.048
 Frequency:       822.99                 956.61                1079.63
 Force Cnst:      3.1571                 2.6621                 2.6165
 Red. Mass:       7.9113                 4.9376                 3.8099
 IR Intens:      168.841               6183.919               1249.688
 Frequency:      1166.09                1230.76                1282.69
 Force Cnst:      1.0743                 1.8158                 1.5969
 Red. Mass:       1.3409                 2.0346                 1.6474
 IR Intens:      709.303                602.861                729.018
 Frequency:      1434.30                1559.16                1698.82
 Force Cnst:      2.8739                13.3578                15.5181
 Red. Mass:       2.3710                 9.3262                 9.1263
 IR Intens:      175.445                850.814                482.703
 Frequency:      3625.90                3792.26                3819.48
 Force Cnst:      8.2693                 9.0433                 9.1628
 Red. Mass:       1.0676                 1.0673                 1.0660
 IR Intens:      435.643                137.680                318.382

 STANDARD THERMODYNAMIC QUANTITIES AT   298.15 K  AND     1.00 ATM

   This Molecule has  2 Imaginary Frequencies
   Zero point vibrational energy:       38.840 kcal/mol

   Atom    1 Element C  Has Mass   12.00000
   Atom    2 Element O  Has Mass   15.99491
   Atom    3 Element H  Has Mass    1.00783
   Atom    4 Element C  Has Mass   12.00000
   Atom    5 Element O  Has Mass   15.99491
   Atom    6 Element O  Has Mass   15.99491
   Atom    7 Element O  Has Mass   15.99491
   Atom    8 Element H  Has Mass    1.00783
   Atom    9 Element O  Has Mass   15.99491
   Atom   10 Element O  Has Mass   15.99491
   Atom   11 Element H  Has Mass    1.00783
   Molecular Mass:   122.992950 amu
   Principal axes and moments of inertia in amu*Bohr^2:
                             1           2           3
    Eigenvalues --      718.18997  1049.04461  1206.61368
          X               0.97340     0.10160     0.20537
          Y              -0.10490     0.99447     0.00519
          Z              -0.20371    -0.02659     0.97867
   Rotational Symmetry Number is   1
   The Molecule is an Asymmetric Top
   Translational Enthalpy:        0.889 kcal/mol
   Rotational Enthalpy:           0.889 kcal/mol
   Vibrational Enthalpy:         42.198 kcal/mol
   gas constant (RT):             0.592 kcal/mol
   Translational Entropy:        40.335  cal/mol.K
   Rotational Entropy:           28.299  cal/mol.K
   Vibrational Entropy:          20.294  cal/mol.K

   Total Enthalpy:               44.568 kcal/mol
   Total Entropy:                88.927  cal/mol.K
 Total job time:  4971.72s(wall), 70930.31s(cpu)
        *  Thank you very much for using Q-Chem.  Have a nice day.  *
 Q-Chem 5.4, Q-Chem, Inc., Pleasanton, CA (2021)
 Q-Chem 5.4.1 for Intel X86 EM64T Linux

User input:
--------------------------------------------------------------

$rem
JOBTYPE = ts
SCF_GUESS = read
GEOM_OPT_HESSIAN = read
MAX_SCF_CYCLES = 350
GEOM_OPT_DMAX = 60
GEOM_OPT_MAX_CYCLES = 250
METHOD = wB97M-v
BASIS = 6-311++G(2df,2p)
SCF_CONVERGENCE = 7
THRESH = 12
SCF_ALGORITHM = DIIS_GDM
UNRESTRICTED = 1
solvent_method = SMD
$end

$molecule
read
$end
--------------------------------------------------------------

   22    -529.2772802070      4.51e-08  Convergence criterion met
 Total energy in the final basis set =     -529.2700684978
   22    -529.2774864665      4.37e-08  Convergence criterion met
 Total energy in the final basis set =     -529.2702859737
   22    -529.2776369754      4.53e-08  Convergence criterion met
 Total energy in the final basis set =     -529.2704476278
   22    -529.2777167839      4.97e-08  Convergence criterion met
 Total energy in the final basis set =     -529.2705354037
   22    -529.2777626491      3.34e-08  Convergence criterion met
 Total energy in the final basis set =     -529.2705905757
   22    -529.2777686067      3.46e-08  Convergence criterion met
 Total energy in the final basis set =     -529.2706007496

             Standard Nuclear Orientation (Angstroms)
    I     Atom           X                Y                Z
 ----------------------------------------------------------------
    1      C       0.5695364666     0.0119301795     0.6700025330
    2      O       1.4789047047    -0.2444354264     1.4529369886
    3      H      -1.5874791836    -0.0042416406    -0.8607253565
    4      C      -0.5883875990    -0.8391455004     0.5767346309
    5      O      -0.5918967654    -1.9098741433     1.3586140692
    6      O      -1.6065446707    -0.7618225066    -0.2626693904
    7      O       0.6742482200     1.1189624247    -0.0988121464
    8      H      -0.1018849591     1.3272414999    -0.6326109051
    9      O      -1.5183944077     0.8592388770     2.0550452789
   10      O      -2.5615200239     1.1545408207     1.5113733859
   11      H      -1.4004993818    -2.4225410845     1.2079938120
 ----------------------------------------------------------------

   22    -529.2777678606      3.66e-08  Convergence criterion met
 Total energy in the final basis set =     -529.2706013173
 Final energy is   -529.270601317280
 **  OPTIMIZATION CONVERGED  **

                    Orbital Energies (a.u.)
 --------------------------------------------------------------

 Alpha MOs
 -- Occupied --
-19.4761 -19.4651 -19.4051 -19.3942 -19.3841 -19.3235 -10.4948 -10.4915
 -1.4128  -1.2747  -1.2329  -1.1973  -1.1483  -0.9498  -0.8544  -0.7563
 -0.7428  -0.6837  -0.6656  -0.6581  -0.6484  -0.5847  -0.5813  -0.5511
 -0.5356  -0.5342  -0.5083  -0.4670  -0.4274  -0.4073  -0.3986  -0.3922

 Beta MOs
 -- Occupied --
-19.4480 -19.4377 -19.4074 -19.3969 -19.3848 -19.3276 -10.5017 -10.4924
 -1.3612  -1.2811  -1.2362  -1.2029  -1.1539  -0.8812  -0.8604  -0.7612
 -0.7453  -0.6870  -0.6389  -0.5998  -0.5898  -0.5648  -0.5544  -0.5541
 -0.5395  -0.5378  -0.5115  -0.4851  -0.4459  -0.4117  -0.2725

          Ground-State Mulliken Net Atomic Charges

     Atom                 Charge (a.u.)    Spin (a.u.)
  --------------------------------------------------------
      1 C                     0.272660      -0.086936
      2 O                    -0.520003      -0.145982
      3 H                     0.357548       0.002227
      4 C                     0.198983      -0.425998
      5 O                    -0.315912      -0.077704
      6 O                    -0.297526      -0.067886
      7 O                    -0.346583      -0.024520
      8 H                     0.336749       0.001206
      9 O                    -0.021177       0.913982
     10 O                    -0.040077       0.910389
     11 H                     0.375339       0.001222
  --------------------------------------------------------
  Sum of atomic charges =     0.000000

                    Cartesian Multipole Moments
 -----------------------------------------------------------------
    Charge (ESU x 10^10)
                 0.0000
    Dipole Moment (Debye)
         X      -6.5042      Y      -0.6486      Z      -5.7944
       Tot       8.7350
    Quadrupole Moments (Debye-Ang)
        XX     -51.0595     XY       3.6293     YY     -40.4714
        XZ      -3.7161     YZ      -3.3399     ZZ     -50.4089

 Total job time:  919.59s(wall), 13270.22s(cpu)
        *  Thank you very much for using Q-Chem.  Have a nice day.  *
