 Q-Chem 5.4, Q-Chem, Inc., Pleasanton, CA (2021)
 Q-Chem 5.4.1 for Intel X86 EM64T Linux

User input:
--------------------------------------------------------------
$molecule
0 3
O   -0.4101617   -1.3341321    2.2650579
O   -1.3141883   -0.5993390    2.8570517
H    0.8572054   -0.2059478    1.9271268
H   -2.0541441   -1.1995919    3.0727755
O    1.5562534    0.4990987    1.8994690
O    1.6915472    0.9010091    3.1402095
$end

$rem
BASIS = 6-311++G(2df,2p)
GUI = 2
JOB_TYPE = Frequency
METHOD = wB97M-V
SOLVENT_METHOD = SMD
SCF_ALGORITHM = DIIS_GDM
MAX_SCF_CYCLES = 400
SCF_CONVERGENCE = 7
THRESH = 12
SYMMETRY_IGNORE = 1
$end

--------------------------------------------------------------

   22    -301.8655151030      7.03e-08  Convergence criterion met
 Total energy in the final basis set =     -301.8641168278
   17    -301.8655140085      6.20e-08  Convergence criterion met
 Total energy in the final basis set =     -301.8641158652
   17    -301.8655150936      8.09e-08  Convergence criterion met
 Total energy in the final basis set =     -301.8641166867
   17    -301.8655140731      7.74e-08  Convergence criterion met
 Total energy in the final basis set =     -301.8641157292
   19    -301.8655155081      8.93e-08  Convergence criterion met
 Total energy in the final basis set =     -301.8641173016
   17    -301.8655148677      8.37e-08  Convergence criterion met
 Total energy in the final basis set =     -301.8641164320
   17    -301.8655149302      7.53e-08  Convergence criterion met
 Total energy in the final basis set =     -301.8641168155
   17    -301.8655138331      8.16e-08  Convergence criterion met
 Total energy in the final basis set =     -301.8641164104
   17    -301.8655156949      6.66e-08  Convergence criterion met
 Total energy in the final basis set =     -301.8641174118
   21    -301.8655144100      4.23e-08  Convergence criterion met
 Total energy in the final basis set =     -301.8641161426
   17    -301.8655155823      7.26e-08  Convergence criterion met
 Total energy in the final basis set =     -301.8641172593
   21    -301.8655143528      4.27e-08  Convergence criterion met
 Total energy in the final basis set =     -301.8641161255
   20    -301.8655147996      9.45e-08  Convergence criterion met
 Total energy in the final basis set =     -301.8641165262
   20    -301.8655138030      8.10e-08  Convergence criterion met
 Total energy in the final basis set =     -301.8641155260
 Frequency:        47.11                  79.34                 149.01
 Force Cnst:      0.0169                 0.0326                 0.0750
 Red. Mass:      12.9444                 8.7839                 5.7297
 IR Intens:        2.029                  6.683                  4.151
 Frequency:       247.87                 286.67                 673.98
 Force Cnst:      0.1905                 0.0588                 0.2807
 Red. Mass:       5.2612                 1.2146                 1.0490
 IR Intens:       59.125                181.731                239.793
 Frequency:      1272.91                1281.60                1478.63
 Force Cnst:     13.8371                12.0993                 1.4759
 Red. Mass:      14.4944                12.5027                 1.1458
 IR Intens:       46.124                 34.771                103.972
 Frequency:      1562.70                3261.39                3641.59
 Force Cnst:      1.5872                 6.7195                 8.3491
 Red. Mass:       1.1031                 1.0722                 1.0686
 IR Intens:       79.853               1370.088                177.785

 STANDARD THERMODYNAMIC QUANTITIES AT   298.15 K  AND     1.00 ATM

   This Molecule has  0 Imaginary Frequencies
   Zero point vibrational energy:       19.989 kcal/mol

   Atom    1 Element O  Has Mass   15.99491
   Atom    2 Element O  Has Mass   15.99491
   Atom    3 Element H  Has Mass    1.00783
   Atom    4 Element H  Has Mass    1.00783
   Atom    5 Element O  Has Mass   15.99491
   Atom    6 Element O  Has Mass   15.99491
   Molecular Mass:    65.995300 amu
   Principal axes and moments of inertia in amu*Bohr^2:
                             1           2           3
    Eigenvalues --       94.49399   560.00226   621.58342
          X               0.84526    -0.30668    -0.43759
          Y               0.53413     0.50856     0.67533
          Z              -0.01543     0.80456    -0.59367
   Rotational Symmetry Number is   1
   The Molecule is an Asymmetric Top
   Translational Enthalpy:        0.889 kcal/mol
   Rotational Enthalpy:           0.889 kcal/mol
   Vibrational Enthalpy:         22.088 kcal/mol
   gas constant (RT):             0.592 kcal/mol
   Translational Entropy:        38.479  cal/mol.K
   Rotational Entropy:           25.001  cal/mol.K
   Vibrational Entropy:          15.187  cal/mol.K

   Total Enthalpy:               24.458 kcal/mol
   Total Entropy:                78.667  cal/mol.K
 Total job time:  538.29s(wall), 8285.83s(cpu)
        *  Thank you very much for using Q-Chem.  Have a nice day.  *
 Q-Chem 5.4, Q-Chem, Inc., Pleasanton, CA (2021)
 Q-Chem 5.4.1 for Intel X86 EM64T Linux

User input:
--------------------------------------------------------------

$molecule
read
$end

$rem
JOBTYPE            rpath
SCF_GUESS          read
RPATH_MAX_CYCLES   30
BASIS = 6-311++G(2df,2p)
METHOD = wB97M-V
SOLVENT_METHOD = SMD
SCF_ALGORITHM = DIIS_GDM
SCF_CONVERGENCE = 7
THRESH = 12
$end
--------------------------------------------------------------

             Standard Nuclear Orientation (Angstroms)
    I     Atom           X                Y                Z
 ----------------------------------------------------------------
    1      O      -0.4101617000    -1.3341321000     2.2650579000
    2      O      -1.3141883000    -0.5993390000     2.8570517000
    3      H       0.8572054000    -0.2059478000     1.9271268000
    4      H      -2.0541441000    -1.1995919000     3.0727755000
    5      O       1.5562534000     0.4990987000     1.8994690000
    6      O       1.6915472000     0.9010091000     3.1402095000
 ----------------------------------------------------------------

   18    -301.8655151030      9.71e-08  Convergence criterion met
 Total energy in the final basis set =     -301.8641168278

                    Orbital Energies (a.u.)
 --------------------------------------------------------------

 Alpha MOs
 -- Occupied --
-19.4687 -19.4421 -19.4382 -19.4138  -1.3554  -1.3279  -1.0136  -0.9834
 -0.6933  -0.6783  -0.6268  -0.6119  -0.6050  -0.5921  -0.4408  -0.4203
 -0.4004  -0.3993

 Beta MOs
 -- Occupied --
-19.4584 -19.4322 -19.4190 -19.3946  -1.3279  -1.3007  -0.9737  -0.9424
 -0.6761  -0.6619  -0.5919  -0.5740  -0.5409  -0.5207  -0.4193  -0.3773

          Ground-State Mulliken Net Atomic Charges

     Atom                 Charge (a.u.)    Spin (a.u.)
  --------------------------------------------------------
      1 O                    -0.204068       0.689173
      2 O                    -0.121215       0.322392
      3 H                     0.399183      -0.009202
      4 H                     0.373633      -0.007618
      5 O                    -0.203878       0.316573
      6 O                    -0.243655       0.688683
  --------------------------------------------------------
  Sum of atomic charges =    -0.000000

                    Cartesian Multipole Moments
 -----------------------------------------------------------------
    Charge (ESU x 10^10)
                -0.0000
    Dipole Moment (Debye)
         X      -5.1084      Y      -3.0755      Z      -0.0959
       Tot       5.9636
    Quadrupole Moments (Debye-Ang)
        XX     -20.1465     XY       0.9320     YY     -23.3297
        XZ     -15.9546     YZ      -9.5790     ZZ     -23.4695
