 Q-Chem 5.4, Q-Chem, Inc., Pleasanton, CA (2021)
 Q-Chem 5.4.1 for Intel X86 EM64T Linux

User input:
--------------------------------------------------------------
$molecule
-1 1
C         0.5976906250    0.1829920034    0.0003836046
O        -0.2116925879    1.0809780819    0.0002834213
C         2.1394850490    0.4145355110    0.0005056157
O         2.4827968949    1.6120878250    0.0005925006
O         2.8556453186   -0.6050976549    0.0004820653
O         0.2596265223   -1.1065494245    0.0003349708
H        -0.7087105219   -1.1729699418    0.0002458218
$end

$rem
BASIS = def2-TZVPPD
JOB_TYPE = SP
METHOD = wB97M-V
SCF_ALGORITHM = DIIS_GDM
MAX_SCF_CYCLES = 400
SCF_CONVERGENCE = 7
THRESH = 12
Solvent_method = SMD
$end
--------------------------------------------------------------

             Standard Nuclear Orientation (Angstroms)
    I     Atom           X                Y                Z
 ----------------------------------------------------------------
    1      C       0.5976906250     0.1829920034     0.0003836046
    2      O      -0.2116925879     1.0809780819     0.0002834213
    3      C       2.1394850490     0.4145355110     0.0005056157
    4      O       2.4827968949     1.6120878250     0.0005925006
    5      O       2.8556453186    -0.6050976549     0.0004820653
    6      O       0.2596265223    -1.1065494245     0.0003349708
    7      H      -0.7087105219    -1.1729699418     0.0002458218
 ----------------------------------------------------------------

   14    -377.9744448077      9.63e-08  Convergence criterion met
 Total energy in the final basis set =     -377.9654202613

                    Orbital Energies (a.u.)
 --------------------------------------------------------------

 Alpha MOs
 -- Occupied --
-19.3822 -19.3339 -19.2939 -19.2935 -10.4835 -10.4546  -1.2481  -1.1779
 -1.1571  -1.0913  -0.7955  -0.6714  -0.6158  -0.5925  -0.5824  -0.5406
 -0.5238  -0.5129  -0.4388  -0.4340  -0.3788  -0.3722  -0.3574

          Ground-State Mulliken Net Atomic Charges

     Atom                 Charge (a.u.)
  ----------------------------------------
      1 C                     0.666979
      2 O                    -0.652034
      3 C                     0.632336
      4 O                    -0.785953
      5 O                    -0.788260
      6 O                    -0.311498
      7 H                     0.238430
  ----------------------------------------
  Sum of atomic charges =    -1.000000

                    Cartesian Multipole Moments
 -----------------------------------------------------------------
    Charge (ESU x 10^10)
                -4.8032
    Dipole Moment (Debye)
         X     -13.1770      Y      -4.7831      Z      -0.0025
       Tot      14.0183
    Quadrupole Moments (Debye-Ang)
        XX     -71.6899     XY      -2.0028     YY     -49.1977
        XZ      -0.0071     YZ      -0.0022     ZZ     -33.8325

 Total job time:  127.58s(wall), 434.97s(cpu)
        *  Thank you very much for using Q-Chem.  Have a nice day.  *
