 Q-Chem 5.4, Q-Chem, Inc., Pleasanton, CA (2021)
 Q-Chem 5.4.1 for Intel X86 EM64T Linux

User input:
--------------------------------------------------------------
$molecule
0 2
C        -0.7815818513   -0.8621260838    0.2169192630
O        -0.5677313100   -1.8388176903    1.1426543543
O        -1.9177326486   -1.1046415258   -0.5122751814
O        -1.0492303607    0.4294279566    0.9158763606
O         0.0279106599    0.8641850188    1.5019380736
H        -1.3980157501   -2.0228529546    1.6064418571
H        -1.9185720505   -0.5486092031   -1.3022780715
H         0.1189209115   -0.7025546179   -0.3693780555
$end

$rem
BASIS = 6-311++G(2df,2p)
GUI = 2
JOB_TYPE = Frequency
METHOD = wB97M-V
SOLVENT_METHOD = SMD
SCF_ALGORITHM = DIIS_GDM
MAX_SCF_CYCLES = 400
SCF_CONVERGENCE = 7
THRESH = 12
UNRESTRICTED = 1
SYMMETRY_IGNORE = 1
$end
--------------------------------------------------------------

   19    -340.7185973160      7.47e-08  Convergence criterion met
 Total energy in the final basis set =     -340.7150297311
   18    -340.7185904243      4.26e-08  Convergence criterion met
 Total energy in the final basis set =     -340.7150285369
   18    -340.7186018073      4.27e-08  Convergence criterion met
 Total energy in the final basis set =     -340.7150285565
   18    -340.7185875414      4.45e-08  Convergence criterion met
 Total energy in the final basis set =     -340.7150295934
   18    -340.7186058161      4.14e-08  Convergence criterion met
 Total energy in the final basis set =     -340.7150286403
   18    -340.7185962388      4.23e-08  Convergence criterion met
 Total energy in the final basis set =     -340.7150288832
   18    -340.7185964951      4.92e-08  Convergence criterion met
 Total energy in the final basis set =     -340.7150287330
   18    -340.7185948539      4.20e-08  Convergence criterion met
 Total energy in the final basis set =     -340.7150291862
   18    -340.7185973322      4.22e-08  Convergence criterion met
 Total energy in the final basis set =     -340.7150289963
   18    -340.7185970297      4.28e-08  Convergence criterion met
 Total energy in the final basis set =     -340.7150291950
   18    -340.7185966768      4.25e-08  Convergence criterion met
 Total energy in the final basis set =     -340.7150293368
   18    -340.7185976660      4.26e-08  Convergence criterion met
 Total energy in the final basis set =     -340.7150295800
   18    -340.7185967172      4.24e-08  Convergence criterion met
 Total energy in the final basis set =     -340.7150296294
   18    -340.7185973382      4.27e-08  Convergence criterion met
 Total energy in the final basis set =     -340.7150293840
   18    -340.7185967636      4.25e-08  Convergence criterion met
 Total energy in the final basis set =     -340.7150295433

                    Orbital Energies (a.u.)
 --------------------------------------------------------------

 Alpha MOs
 -- Occupied --
-19.4592 -19.4206 -19.3694 -19.3694 -10.5127  -1.3495  -1.2367  -1.1675
 -0.9961  -0.8031  -0.7032  -0.6806  -0.6548  -0.6047  -0.5866  -0.5220
 -0.5028  -0.4701  -0.4464  -0.4017  -0.4002

 Beta MOs
 -- Occupied --
-19.4491 -19.4016 -19.3694 -19.3692 -10.5131  -1.3250  -1.2332  -1.1673
 -0.9605  -0.7971  -0.7014  -0.6687  -0.6346  -0.5879  -0.5335  -0.5132
 -0.4985  -0.4650  -0.4410  -0.3824

          Ground-State Mulliken Net Atomic Charges

     Atom                 Charge (a.u.)    Spin (a.u.)
  --------------------------------------------------------
      1 C                     0.096874      -0.003387
      2 O                    -0.403208       0.002315
      3 O                    -0.416847       0.000252
      4 O                    -0.019725       0.311382
      5 O                    -0.241570       0.684103
      6 H                     0.348664       0.000390
      7 H                     0.341464      -0.000250
      8 H                     0.294349       0.005194
  --------------------------------------------------------
  Sum of atomic charges =    -0.000000

                    Cartesian Multipole Moments
 -----------------------------------------------------------------
    Charge (ESU x 10^10)
                -0.0000
    Dipole Moment (Debye)
         X      -1.4319      Y      -0.9318      Z      -3.0114
       Tot       3.4622
    Quadrupole Moments (Debye-Ang)
        XX     -28.0324     XY       1.6874     YY     -32.3877
        XZ      -0.8831     YZ      -3.9613     ZZ     -26.7036

             Standard Nuclear Orientation (Angstroms)
    I     Atom           X                Y                Z
 ----------------------------------------------------------------
    1      C      -0.7815818513    -0.8621260838     0.2169192630
    2      O      -0.5677313100    -1.8388176903     1.1426543543
    3      O      -1.9177326486    -1.1046415258    -0.5122751814
    4      O      -1.0492303607     0.4294279566     0.9158763606
    5      O       0.0279106599     0.8641850188     1.5019380736
    6      H      -1.3980157501    -2.0228529546     1.6064418571
    7      H      -1.9185720505    -0.5486092031    -1.3022780715
    8      H       0.1189209115    -0.7025546179    -0.3693780555
 ----------------------------------------------------------------

 Frequency:       102.70                 279.21                 323.44
 Force Cnst:      0.0505                 0.0574                 0.2420
 Red. Mass:       8.1204                 1.2486                 3.9259
 IR Intens:        3.117                132.169                134.018
 Frequency:       331.34                 465.49                 566.69
 Force Cnst:      0.0799                 0.7522                 1.0254
 Red. Mass:       1.2351                 5.8916                 5.4196
 IR Intens:      252.392                  5.568                 62.143
 Frequency:       610.42                 849.00                1030.37
 Force Cnst:      1.1563                 3.9707                 2.2736
 Red. Mass:       5.2669                 9.3497                 3.6348
 IR Intens:       59.977                331.412                222.071
 Frequency:      1121.42                1217.03                1278.44
 Force Cnst:      3.1451                 0.9709                11.1385
 Red. Mass:       4.2447                 1.1125                11.5668
 IR Intens:      416.466                124.473                 27.221
 Frequency:      1339.55                1386.32                1445.13
 Force Cnst:      1.2924                 1.6379                 1.5892
 Red. Mass:       1.2225                 1.4465                 1.2916
 IR Intens:       72.896                 62.182                 86.214
 Frequency:      3161.40                3762.78                3803.20
 Force Cnst:      6.4240                 8.8872                 9.0871
 Red. Mass:       1.0909                 1.0654                 1.0663
 IR Intens:       16.382                162.571                208.427

 STANDARD THERMODYNAMIC QUANTITIES AT   298.15 K  AND     1.00 ATM

   This Molecule has  0 Imaginary Frequencies
   Zero point vibrational energy:       32.986 kcal/mol

   Atom    1 Element C  Has Mass   12.00000
   Atom    2 Element O  Has Mass   15.99491
   Atom    3 Element O  Has Mass   15.99491
   Atom    4 Element O  Has Mass   15.99491
   Atom    5 Element O  Has Mass   15.99491
   Atom    6 Element H  Has Mass    1.00783
   Atom    7 Element H  Has Mass    1.00783
   Atom    8 Element H  Has Mass    1.00783
   Molecular Mass:    79.003130 amu
   Principal axes and moments of inertia in amu*Bohr^2:
                             1           2           3
    Eigenvalues --      189.21303   417.63970   559.02841
          X               0.43098    -0.47589     0.76667
          Y               0.74775     0.66393    -0.00823
          Z               0.50510    -0.57683    -0.64198
   Rotational Symmetry Number is   1
   The Molecule is an Asymmetric Top
   Translational Enthalpy:        0.889 kcal/mol
   Rotational Enthalpy:           0.889 kcal/mol
   Vibrational Enthalpy:         34.685 kcal/mol
   gas constant (RT):             0.592 kcal/mol
   Translational Entropy:        39.015  cal/mol.K
   Rotational Entropy:           25.294  cal/mol.K
   Vibrational Entropy:           9.616  cal/mol.K

   Total Enthalpy:               37.055 kcal/mol
   Total Entropy:                73.925  cal/mol.K
 Total job time:  2177.02s(wall), 16880.98s(cpu)
        *  Thank you very much for using Q-Chem.  Have a nice day.  *
