 Q-Chem 5.4, Q-Chem, Inc., Pleasanton, CA (2021)
 Q-Chem 5.4.1 for Intel X86 EM64T Linux

User input:
--------------------------------------------------------------
$molecule
0 2
C        -0.7792629948   -0.8631739733    0.2136688293
O        -0.5581827402   -1.8349995744    1.1478796602
O        -1.9123225721   -1.1258067881   -0.5195209094
O        -1.0571953212    0.4298914991    0.8996410209
O         0.0252574011    0.8488890446    1.5087885308
H        -1.4023205377   -2.0072089376    1.6062162072
H        -1.9310456680   -0.5283997939   -1.2876628587
H         0.1290400331   -0.7051805765   -0.3691118801
$end

$rem
BASIS = 6-311++G(2df,2p)
GUI = 2
JOB_TYPE = Optimization
METHOD = wB97M-V
SCF_ALGORITHM = DIIS_GDM
MAX_SCF_CYCLES = 400
GEOM_OPT_MAX_CYCLES = 150
SCF_CONVERGENCE = 7
THRESH = 12
UNRESTRICTED = 1
Solvent_method = SMD
$end
--------------------------------------------------------------

   19    -340.7182193875      7.96e-08  Convergence criterion met
 Total energy in the final basis set =     -340.7147353848
   18    -340.7185274761      7.69e-08  Convergence criterion met
 Total energy in the final basis set =     -340.7149999172
   18    -340.7185662965      4.21e-08  Convergence criterion met
 Total energy in the final basis set =     -340.7150181408
   17    -340.7185794320      7.85e-08  Convergence criterion met
 Total energy in the final basis set =     -340.7150230164
   18    -340.7185936345      5.81e-08  Convergence criterion met
 Total energy in the final basis set =     -340.7150275748
   18    -340.7185983546      5.27e-08  Convergence criterion met
 Total energy in the final basis set =     -340.7150291981

             Standard Nuclear Orientation (Angstroms)
    I     Atom           X                Y                Z
 ----------------------------------------------------------------
    1      C      -0.7815818513    -0.8621260838     0.2169192630
    2      O      -0.5677313100    -1.8388176903     1.1426543543
    3      O      -1.9177326486    -1.1046415258    -0.5122751814
    4      O      -1.0492303607     0.4294279566     0.9158763606
    5      O       0.0279106599     0.8641850188     1.5019380736
    6      H      -1.3980157501    -2.0228529546     1.6064418571
    7      H      -1.9185720505    -0.5486092031    -1.3022780715
    8      H       0.1189209115    -0.7025546179    -0.3693780555
 ----------------------------------------------------------------

   18    -340.7185973161      5.02e-08  Convergence criterion met
 Total energy in the final basis set =     -340.7150297312
 Final energy is   -340.715029731186
 **  OPTIMIZATION CONVERGED  **

                    Orbital Energies (a.u.)
 --------------------------------------------------------------

 Alpha MOs
 -- Occupied --
-19.4592 -19.4206 -19.3694 -19.3694 -10.5127  -1.3495  -1.2367  -1.1675
 -0.9961  -0.8031  -0.7033  -0.6806  -0.6548  -0.6047  -0.5866  -0.5220
 -0.5028  -0.4701  -0.4464  -0.4017  -0.4002

 Beta MOs
 -- Occupied --
-19.4490 -19.4016 -19.3694 -19.3692 -10.5130  -1.3250  -1.2332  -1.1673
 -0.9605  -0.7972  -0.7014  -0.6687  -0.6346  -0.5879  -0.5335  -0.5132
 -0.4985  -0.4650  -0.4410  -0.3824

          Ground-State Mulliken Net Atomic Charges

     Atom                 Charge (a.u.)    Spin (a.u.)
  --------------------------------------------------------
      1 C                     0.096822      -0.003392
      2 O                    -0.403201       0.002319
      3 O                    -0.416854       0.000253
      4 O                    -0.019722       0.311399
      5 O                    -0.241609       0.684087
      6 H                     0.348644       0.000390
      7 H                     0.341452      -0.000250
      8 H                     0.294467       0.005193
  --------------------------------------------------------
  Sum of atomic charges =    -0.000000

                    Cartesian Multipole Moments
 -----------------------------------------------------------------
    Charge (ESU x 10^10)
                -0.0000
    Dipole Moment (Debye)
         X      -1.4320      Y      -0.9318      Z      -3.0114
       Tot       3.4623
    Quadrupole Moments (Debye-Ang)
        XX     -28.0309     XY       1.6875     YY     -32.3878
        XZ      -0.8820     YZ      -3.9611     ZZ     -26.7048

 Total job time:  288.22s(wall), 2231.05s(cpu)
        *  Thank you very much for using Q-Chem.  Have a nice day.  *
