 Q-Chem 5.4, Q-Chem, Inc., Pleasanton, CA (2021)
 Q-Chem 5.4.1 for Intel X86 EM64T Linux

User input:
--------------------------------------------------------------
$molecule
0 2
O        -0.7265937369    0.9841477964    0.4577690803
C        -0.2402478792   -0.2480819922    0.2787714565
O        -1.0332743381   -1.2873550349    0.0253175921
C         1.1606206866   -0.4586142849    0.3412688524
O         1.9284314593    0.6167230263    0.6653942023
O         1.7012960441   -1.5446342061    0.1197841305
H        -1.6551020347    0.9778739983    0.7336224659
H        -1.9370777822   -1.0038659970   -0.1746886398
H         1.3743443810    1.3906540943    0.8401361600
$end

$rem
BASIS = 6-311++G(3df,2p)
JOB_TYPE = SP
METHOD = wB97M-V
SCF_ALGORITHM = DIIS_GDM
MAX_SCF_CYCLES = 400
SCF_CONVERGENCE = 7
THRESH = 12
Solvent_method = SMD
$end
--------------------------------------------------------------

             Standard Nuclear Orientation (Angstroms)
    I     Atom           X                Y                Z
 ----------------------------------------------------------------
    1      O      -0.7265937369     0.9841477964     0.4577690803
    2      C      -0.2402478792    -0.2480819922     0.2787714565
    3      O      -1.0332743381    -1.2873550349     0.0253175921
    4      C       1.1606206866    -0.4586142849     0.3412688524
    5      O       1.9284314593     0.6167230263     0.6653942023
    6      O       1.7012960441    -1.5446342061     0.1197841305
    7      H      -1.6551020347     0.9778739983     0.7336224659
    8      H      -1.9370777822    -1.0038659970    -0.1746886398
    9      H       1.3743443810     1.3906540943     0.8401361600
 ----------------------------------------------------------------

   17    -378.9458170755      6.89e-08  Convergence criterion met
 Total energy in the final basis set =     -378.9375243627

                    Orbital Energies (a.u.)
 --------------------------------------------------------------

 Alpha MOs
 -- Occupied --
-19.3974 -19.3962 -19.3751 -19.3211 -10.4854 -10.4778  -1.2698  -1.2245
 -1.1955  -1.1450  -0.8765  -0.7343  -0.7240  -0.6837  -0.6139  -0.5918
 -0.5689  -0.5426  -0.5208  -0.4959  -0.4874  -0.4418  -0.4072  -0.2779

 Beta MOs
 -- Occupied --
-19.3944 -19.3929 -19.3740 -19.3161 -10.4771 -10.4765  -1.2618  -1.2202
 -1.1884  -1.1378  -0.8580  -0.7299  -0.7180  -0.6773  -0.5899  -0.5839
 -0.5621  -0.5259  -0.5153  -0.4906  -0.4623  -0.4182  -0.4003

          Ground-State Mulliken Net Atomic Charges

     Atom                 Charge (a.u.)    Spin (a.u.)
  --------------------------------------------------------
      1 O                    -0.591194       0.073558
      2 C                     0.696037       0.515938
      3 O                    -0.602063       0.085622
      4 C                     0.935417       0.118167
      5 O                    -0.644970       0.031286
      6 O                    -0.820500       0.174422
      7 H                     0.335610       0.002306
      8 H                     0.344795      -0.000934
      9 H                     0.346867      -0.000364
  --------------------------------------------------------
  Sum of atomic charges =     0.000000

                    Cartesian Multipole Moments
 -----------------------------------------------------------------
    Charge (ESU x 10^10)
                 0.0000
    Dipole Moment (Debye)
         X      -9.2329      Y       5.3413      Z       0.9675
       Tot      10.7104
    Quadrupole Moments (Debye-Ang)
        XX     -34.8599     XY       6.8400     YY     -40.9700
        XZ      -2.0769     YZ       2.3868     ZZ     -33.2271

 Total job time:  118.80s(wall), 464.19s(cpu)
        *  Thank you very much for using Q-Chem.  Have a nice day.  *
