 Q-Chem 5.4, Q-Chem, Inc., Pleasanton, CA (2021)
 Q-Chem 5.4.1 for Intel X86 EM64T Linux

User input:
--------------------------------------------------------------
$molecule
0 2
C         0.6072589961    0.0995536333    0.2712972596
O         1.4192510827   -0.7394525853    0.5581470688
H        -2.1260616732    1.1525978741    0.6669314370
C        -0.8871968854   -0.2005200305    0.1817492238
O        -1.1409735157   -1.4918035736    0.0903525274
O        -1.6789620209    0.6859210684   -0.2986863993
O         0.9279555595    1.3610302873    0.0358978246
H         0.1400538454    1.8737465506   -0.2114863691
O        -1.2145784868    0.1862517434    2.0046042293
O        -2.1040940641    1.1019168681    1.9304935257
H        -2.0845900376   -1.6251677360   -0.0954806277
$end

$rem
BASIS = 6-311++G(3df,2p)
JOB_TYPE = SP
METHOD = wB97M-V
SCF_ALGORITHM = DIIS_GDM
MAX_SCF_CYCLES = 400
SCF_CONVERGENCE = 7
THRESH = 12
Solvent_method = SMD
$end
--------------------------------------------------------------

             Standard Nuclear Orientation (Angstroms)
    I     Atom           X                Y                Z
 ----------------------------------------------------------------
    1      C       0.6072589961     0.0995536333     0.2712972596
    2      O       1.4192510827    -0.7394525853     0.5581470688
    3      H      -2.1260616732     1.1525978741     0.6669314370
    4      C      -0.8871968854    -0.2005200305     0.1817492238
    5      O      -1.1409735157    -1.4918035736     0.0903525274
    6      O      -1.6789620209     0.6859210684    -0.2986863993
    7      O       0.9279555595     1.3610302873     0.0358978246
    8      H       0.1400538454     1.8737465506    -0.2114863691
    9      O      -1.2145784868     0.1862517434     2.0046042293
   10      O      -2.1040940641     1.1019168681     1.9304935257
   11      H      -2.0845900376    -1.6251677360    -0.0954806277
 ----------------------------------------------------------------

   21    -529.3109691678      6.03e-08  Convergence criterion met
 Total energy in the final basis set =     -529.3035697858

                    Orbital Energies (a.u.)
 --------------------------------------------------------------

 Alpha MOs
 -- Occupied --
-19.4560 -19.4506 -19.3999 -19.3995 -19.3681 -19.3507 -10.5363 -10.5103
 -1.3694  -1.2793  -1.2527  -1.1950  -1.1750  -0.9784  -0.8468  -0.7550
 -0.7332  -0.7027  -0.6675  -0.6328  -0.6253  -0.6020  -0.5852  -0.5597
 -0.5328  -0.5159  -0.4940  -0.4717  -0.4526  -0.4216  -0.4052  -0.3950

 Beta MOs
 -- Occupied --
-19.4404 -19.4354 -19.3999 -19.3996 -19.3683 -19.3506 -10.5367 -10.5103
 -1.3424  -1.2778  -1.2524  -1.1947  -1.1749  -0.9400  -0.8433  -0.7550
 -0.7264  -0.7012  -0.6654  -0.6060  -0.6022  -0.5849  -0.5609  -0.5469
 -0.5228  -0.5146  -0.4881  -0.4699  -0.4523  -0.4136  -0.3838

          Ground-State Mulliken Net Atomic Charges

     Atom                 Charge (a.u.)    Spin (a.u.)
  --------------------------------------------------------
      1 C                     1.241129      -0.006096
      2 O                    -0.736605       0.000768
      3 H                     0.423692      -0.009064
      4 C                     0.893292      -0.015150
      5 O                    -0.626561      -0.001634
      6 O                    -0.825331      -0.003016
      7 O                    -0.584832       0.000155
      8 H                     0.362406      -0.000051
      9 O                    -0.233173       0.523696
     10 O                    -0.255000       0.510011
     11 H                     0.340982       0.000382
  --------------------------------------------------------
  Sum of atomic charges =     0.000000

                    Cartesian Multipole Moments
 -----------------------------------------------------------------
    Charge (ESU x 10^10)
                 0.0000
    Dipole Moment (Debye)
         X      -5.2148      Y       1.7889      Z      -2.3821
       Tot       6.0057
    Quadrupole Moments (Debye-Ang)
        XX     -44.9867     XY       5.1198     YY     -41.9295
        XZ      -0.1884     YZ       0.8550     ZZ     -50.5722

 Total job time:  292.29s(wall), 1153.83s(cpu)
        *  Thank you very much for using Q-Chem.  Have a nice day.  *
