 Q-Chem 5.4, Q-Chem, Inc., Pleasanton, CA (2021)
 Q-Chem 5.4.1 for Intel X86 EM64T Linux

User input:
--------------------------------------------------------------
$molecule
0 2
O        -0.7265937369    0.9841477964    0.4577690803
C        -0.2402478792   -0.2480819922    0.2787714565
O        -1.0332743381   -1.2873550349    0.0253175921
C         1.1606206866   -0.4586142849    0.3412688524
O         1.9284314593    0.6167230263    0.6653942023
O         1.7012960441   -1.5446342061    0.1197841305
H        -1.6551020347    0.9778739983    0.7336224659
H        -1.9370777822   -1.0038659970   -0.1746886398
H         1.3743443810    1.3906540943    0.8401361600
$end

$rem
BASIS = def2-QZVP
JOB_TYPE = SP
METHOD = wB97M-V
SCF_ALGORITHM = DIIS_GDM
MAX_SCF_CYCLES = 400
SCF_CONVERGENCE = 7
THRESH = 12
Solvent_method = SMD
$end
--------------------------------------------------------------

             Standard Nuclear Orientation (Angstroms)
    I     Atom           X                Y                Z
 ----------------------------------------------------------------
    1      O      -0.7265937369     0.9841477964     0.4577690803
    2      C      -0.2402478792    -0.2480819922     0.2787714565
    3      O      -1.0332743381    -1.2873550349     0.0253175921
    4      C       1.1606206866    -0.4586142849     0.3412688524
    5      O       1.9284314593     0.6167230263     0.6653942023
    6      O       1.7012960441    -1.5446342061     0.1197841305
    7      H      -1.6551020347     0.9778739983     0.7336224659
    8      H      -1.9370777822    -1.0038659970    -0.1746886398
    9      H       1.3743443810     1.3906540943     0.8401361600
 ----------------------------------------------------------------

   17    -378.9843198865      7.28e-08  Convergence criterion met
 Total energy in the final basis set =     -378.9760271737

                    Orbital Energies (a.u.)
 --------------------------------------------------------------

 Alpha MOs
 -- Occupied --
-19.3935 -19.3923 -19.3711 -19.3168 -10.4843 -10.4764  -1.2675  -1.2222
 -1.1933  -1.1427  -0.8744  -0.7322  -0.7220  -0.6817  -0.6123  -0.5899
 -0.5669  -0.5410  -0.5189  -0.4941  -0.4859  -0.4401  -0.4054  -0.2764

 Beta MOs
 -- Occupied --
-19.3905 -19.3890 -19.3699 -19.3117 -10.4760 -10.4751  -1.2595  -1.2178
 -1.1861  -1.1355  -0.8560  -0.7278  -0.7159  -0.6754  -0.5881  -0.5821
 -0.5602  -0.5242  -0.5134  -0.4888  -0.4606  -0.4164  -0.3984

          Ground-State Mulliken Net Atomic Charges

     Atom                 Charge (a.u.)    Spin (a.u.)
  --------------------------------------------------------
      1 O                    -0.376501       0.076392
      2 C                     0.273234       0.511329
      3 O                    -0.366759       0.089685
      4 C                     0.347909       0.115535
      5 O                    -0.398786       0.032901
      6 O                    -0.498700       0.177293
      7 H                     0.346874       0.001970
      8 H                     0.347111      -0.003216
      9 H                     0.325618      -0.001888
  --------------------------------------------------------
  Sum of atomic charges =    -0.000000

                    Cartesian Multipole Moments
 -----------------------------------------------------------------
    Charge (ESU x 10^10)
                 0.0000
    Dipole Moment (Debye)
         X      -9.2078      Y       5.3225      Z       0.9610
       Tot      10.6788
    Quadrupole Moments (Debye-Ang)
        XX     -34.6415     XY       6.8375     YY     -40.6780
        XZ      -2.0586     YZ       2.3995     ZZ     -33.0324

 Total job time:  722.44s(wall), 2862.18s(cpu)
        *  Thank you very much for using Q-Chem.  Have a nice day.  *
