 Q-Chem 5.4, Q-Chem, Inc., Pleasanton, CA (2021)
 Q-Chem 5.4.1 for Intel X86 EM64T Linux

User input:
--------------------------------------------------------------
$molecule
-1 2
C         0.6332016938    0.2492218888    0.7584201423
O         1.4025855345   -0.2466265649    1.5928966321
H        -1.9375709960   -1.0123331655   -0.8866207339
C        -0.5876356319   -0.6521105713    0.4044916578
O        -0.8569532521   -1.6133086963    1.1906387653
O        -1.1874161180   -0.4200235349   -0.6924266891
O         0.6788790895    1.3139223991    0.1285257991
O        -1.4798178908    1.1120009332    2.5219901422
O        -2.4778756125    0.8597842175    1.6870392901
H        -1.6207131163   -2.1609506057    0.9312915941
$end

$rem
BASIS = 6-31G(d)
JOB_TYPE = SP
METHOD = wB97M-V
SCF_ALGORITHM = DIIS_GDM
MAX_SCF_CYCLES = 400
SCF_CONVERGENCE = 7
THRESH = 12
Solvent_method = SMD
$end
--------------------------------------------------------------

             Standard Nuclear Orientation (Angstroms)
    I     Atom           X                Y                Z
 ----------------------------------------------------------------
    1      C       0.6332016938     0.2492218888     0.7584201423
    2      O       1.4025855345    -0.2466265649     1.5928966321
    3      H      -1.9375709960    -1.0123331655    -0.8866207339
    4      C      -0.5876356319    -0.6521105713     0.4044916578
    5      O      -0.8569532521    -1.6133086963     1.1906387653
    6      O      -1.1874161180    -0.4200235349    -0.6924266891
    7      O       0.6788790895     1.3139223991     0.1285257991
    8      O      -1.4798178908     1.1120009332     2.5219901422
    9      O      -2.4778756125     0.8597842175     1.6870392901
   10      H      -1.6207131163    -2.1609506057     0.9312915941
 ----------------------------------------------------------------

   25    -528.6044417576      6.41e-08  Convergence criterion met
 Total energy in the final basis set =     -528.5962917555

                    Orbital Energies (a.u.)
 --------------------------------------------------------------

 Alpha MOs
 -- Occupied --
-19.4540 -19.4539 -19.3257 -19.3253 -19.3066 -19.3062 -10.5525 -10.4711
 -1.3181  -1.2370  -1.1820  -1.1727  -1.0875  -0.8581  -0.8311  -0.7669
 -0.6974  -0.6241  -0.6139  -0.5545  -0.5300  -0.5268  -0.5150  -0.4999
 -0.4874  -0.4839  -0.4572  -0.3686  -0.3628  -0.3579  -0.2890  -0.2566

 Beta MOs
 -- Occupied --
-19.4540 -19.4540 -19.3122 -19.3116 -19.3066 -19.3062 -10.5525 -10.4711
 -1.3182  -1.2370  -1.1731  -1.1528  -1.0876  -0.8582  -0.7896  -0.7669
 -0.6974  -0.6239  -0.6139  -0.5545  -0.5300  -0.5268  -0.5135  -0.4954
 -0.4655  -0.4423  -0.4046  -0.3684  -0.3625  -0.3578  -0.2376

          Ground-State Mulliken Net Atomic Charges

     Atom                 Charge (a.u.)    Spin (a.u.)
  --------------------------------------------------------
      1 C                     0.547692      -0.001116
      2 O                    -0.638691      -0.000512
      3 H                     0.517441      -0.000119
      4 C                     0.606611      -0.002641
      5 O                    -0.489307      -0.000306
      6 O                    -0.490035      -0.000203
      7 O                    -0.639734      -0.000136
      8 O                    -0.463179       0.506359
      9 O                    -0.468972       0.498689
     10 H                     0.518174      -0.000014
  --------------------------------------------------------
  Sum of atomic charges =    -1.000000

                    Cartesian Multipole Moments
 -----------------------------------------------------------------
    Charge (ESU x 10^10)
                -4.8032
    Dipole Moment (Debye)
         X      -2.2843      Y     -12.6734      Z     -12.8755
       Tot      18.2103
    Quadrupole Moments (Debye-Ang)
        XX     -57.4219     XY      18.0216     YY     -44.3560
        XZ      11.4726     YZ      -8.3777     ZZ     -71.1577

 Total job time:  48.49s(wall), 187.67s(cpu)
        *  Thank you very much for using Q-Chem.  Have a nice day.  *
