 Q-Chem 5.4, Q-Chem, Inc., Pleasanton, CA (2021)
 Q-Chem 5.4.1 for Intel X86 EM64T Linux

User input:
--------------------------------------------------------------
$molecule
-1 2
C         1.4980164545    0.7660547243   -0.1383624944
O         1.8026323618    1.4121745551    0.8766832452
O         1.9798924524    0.8168866210   -1.2928620119
C         0.3676719600   -0.2762671958    0.0083766160
O        -0.0592124773   -0.7989272362   -1.1237456197
O        -0.4187979559   -0.3089060280    1.0215964248
H         0.0738809553   -1.0384616266    1.7114023966
O         1.5892850633   -1.6572546214    0.7212176276
O         1.0518619496   -1.9085083887    1.8610669549
H         0.5714289363   -0.4987389036   -1.8095437390
$end

$rem
BASIS = 6-31G(d)
JOB_TYPE = SP
METHOD = wB97M-V
SCF_ALGORITHM = DIIS_GDM
MAX_SCF_CYCLES = 400
SCF_CONVERGENCE = 7
THRESH = 12
Solvent_method = SMD
$end
--------------------------------------------------------------

             Standard Nuclear Orientation (Angstroms)
    I     Atom           X                Y                Z
 ----------------------------------------------------------------
    1      C       1.4980164545     0.7660547243    -0.1383624944
    2      O       1.8026323618     1.4121745551     0.8766832452
    3      O       1.9798924524     0.8168866210    -1.2928620119
    4      C       0.3676719600    -0.2762671958     0.0083766160
    5      O      -0.0592124773    -0.7989272362    -1.1237456197
    6      O      -0.4187979559    -0.3089060280     1.0215964248
    7      H       0.0738809553    -1.0384616266     1.7114023966
    8      O       1.5892850633    -1.6572546214     0.7212176276
    9      O       1.0518619496    -1.9085083887     1.8610669549
   10      H       0.5714289363    -0.4987389036    -1.8095437390
 ----------------------------------------------------------------

   20    -528.6416269468      9.22e-08  Convergence criterion met
 Total energy in the final basis set =     -528.6344637519

                    Orbital Energies (a.u.)
 --------------------------------------------------------------

 Alpha MOs
 -- Occupied --
-19.4394 -19.4367 -19.3958 -19.3635 -19.3042 -19.2992 -10.5081 -10.4537
 -1.3271  -1.2435  -1.1657  -1.1609  -1.0762  -0.9371  -0.7748  -0.7190
 -0.6853  -0.6057  -0.5954  -0.5873  -0.5813  -0.5285  -0.5225  -0.5081
 -0.4920  -0.4654  -0.4408  -0.3771  -0.3679  -0.3590  -0.3493  -0.3401

 Beta MOs
 -- Occupied --
-19.4242 -19.4224 -19.3959 -19.3636 -19.3042 -19.2991 -10.5084 -10.4537
 -1.3002  -1.2417  -1.1654  -1.1609  -1.0761  -0.8974  -0.7727  -0.7176
 -0.6799  -0.6039  -0.5819  -0.5662  -0.5284  -0.5215  -0.5157  -0.5024
 -0.4841  -0.4596  -0.4396  -0.3635  -0.3586  -0.3494  -0.3323

          Ground-State Mulliken Net Atomic Charges

     Atom                 Charge (a.u.)    Spin (a.u.)
  --------------------------------------------------------
      1 C                     0.536266      -0.000031
      2 O                    -0.655209       0.001899
      3 O                    -0.666804      -0.000062
      4 C                     0.562966      -0.022300
      5 O                    -0.584005      -0.004856
      6 O                    -0.658214      -0.001977
      7 H                     0.494084      -0.010207
      8 O                    -0.225214       0.535684
      9 O                    -0.270641       0.501755
     10 H                     0.466772       0.000096
  --------------------------------------------------------
  Sum of atomic charges =    -1.000000

                    Cartesian Multipole Moments
 -----------------------------------------------------------------
    Charge (ESU x 10^10)
                -4.8032
    Dipole Moment (Debye)
         X      -7.9839      Y      -2.6234      Z      -2.2335
       Tot       8.6956
    Quadrupole Moments (Debye-Ang)
        XX     -65.3939     XY      -7.3803     YY     -57.1890
        XZ      -1.4129     YZ       1.3909     ZZ     -50.4583

 Total job time:  39.75s(wall), 154.42s(cpu)
        *  Thank you very much for using Q-Chem.  Have a nice day.  *
