 Q-Chem 5.4, Q-Chem, Inc., Pleasanton, CA (2021)
 Q-Chem 5.4.1 for Intel X86 EM64T Linux

User input:
--------------------------------------------------------------
$molecule
0 2
O        -0.4628443119    1.4062765168   -0.3338263962
C         0.0001780212    0.4576397441    0.5699888494
O        -0.9991184032   -0.4100108625    0.9945623619
C         1.1585387697   -0.3123762542   -0.0500006829
O         2.0694287861    0.4823349227   -0.5845675524
O         1.2217330546   -1.5180777080   -0.0011624366
H        -1.0496509914    2.0161099922    0.1307241003
H        -0.6649513630   -1.3165348992    0.9062656099
H         2.7994759286   -0.0533732966   -0.9357000371
H         0.4330768658    0.9910550084    1.4857371922
O         1.2872704652    1.6529693057    2.5904387587
H         2.0679795783    1.7852775305    2.0246481329
$end

$rem
BASIS = def2-QZVP
JOB_TYPE = SP
METHOD = wB97M-V
SCF_ALGORITHM = DIIS_GDM
MAX_SCF_CYCLES = 400
SCF_CONVERGENCE = 7
THRESH = 12
Solvent_method = SMD
$end
--------------------------------------------------------------

             Standard Nuclear Orientation (Angstroms)
    I     Atom           X                Y                Z
 ----------------------------------------------------------------
    1      O      -0.4628443119     1.4062765168    -0.3338263962
    2      C       0.0001780212     0.4576397441     0.5699888494
    3      O      -0.9991184032    -0.4100108625     0.9945623619
    4      C       1.1585387697    -0.3123762542    -0.0500006829
    5      O       2.0694287861     0.4823349227    -0.5845675524
    6      O       1.2217330546    -1.5180777080    -0.0011624366
    7      H      -1.0496509914     2.0161099922     0.1307241003
    8      H      -0.6649513630    -1.3165348992     0.9062656099
    9      H       2.7994759286    -0.0533732966    -0.9357000371
   10      H       0.4330768658     0.9910550084     1.4857371922
   11      O       1.2872704652     1.6529693057     2.5904387587
   12      H       2.0679795783     1.7852775305     2.0246481329
 ----------------------------------------------------------------

   22    -455.3735269078      9.93e-08  Convergence criterion met
 Total energy in the final basis set =     -455.3660095789

                    Orbital Energies (a.u.)
 --------------------------------------------------------------

 Alpha MOs
 -- Occupied --
-19.3944 -19.3810 -19.3608 -19.3566 -19.3473 -10.5021 -10.4782  -1.2666
 -1.2171  -1.1783  -1.1502  -1.1314  -0.8629  -0.7470  -0.6854  -0.6690
 -0.6435  -0.6134  -0.5845  -0.5654  -0.5447  -0.5287  -0.5062  -0.4867
 -0.4537  -0.4507  -0.4375  -0.4211  -0.3832

 Beta MOs
 -- Occupied --
-19.3944 -19.3601 -19.3600 -19.3554 -19.3471 -10.5020 -10.4744  -1.2661
 -1.2147  -1.1776  -1.1481  -1.0763  -0.8581  -0.7429  -0.6808  -0.6630
 -0.6376  -0.6076  -0.5717  -0.5503  -0.5437  -0.5212  -0.4852  -0.4511
 -0.4354  -0.4282  -0.4244  -0.4024

          Ground-State Mulliken Net Atomic Charges

     Atom                 Charge (a.u.)    Spin (a.u.)
  --------------------------------------------------------
      1 O                    -0.447678       0.023256
      2 C                     0.272975       0.147561
      3 O                    -0.462558       0.032292
      4 C                     0.348451       0.001405
      5 O                    -0.340012       0.000256
      6 O                    -0.414798       0.008518
      7 H                     0.337603       0.000854
      8 H                     0.322509       0.000823
      9 H                     0.343306      -0.000099
     10 H                     0.145346      -0.007034
     11 O                    -0.434594       0.813173
     12 H                     0.329448      -0.021004
  --------------------------------------------------------
  Sum of atomic charges =     0.000000

                    Cartesian Multipole Moments
 -----------------------------------------------------------------
    Charge (ESU x 10^10)
                 0.0000
    Dipole Moment (Debye)
         X       2.8847      Y       1.2562      Z      -1.4620
       Tot       3.4695
    Quadrupole Moments (Debye-Ang)
        XX     -29.6485     XY       0.9772     YY     -41.6351
        XZ      -2.0918     YZ      -0.1338     ZZ     -48.7708

 Total job time:  1657.91s(wall), 6570.82s(cpu)
        *  Thank you very much for using Q-Chem.  Have a nice day.  *
