 Q-Chem 5.4, Q-Chem, Inc., Pleasanton, CA (2021)
 Q-Chem 5.4.1 for Intel X86 EM64T Linux

User input:
--------------------------------------------------------------
$molecule
-1 2
C         1.8089773900    0.1597908005   -1.5221501325
C         0.5792040988   -0.2991611523   -2.3054470286
O         0.6197325970   -1.7125805858   -2.2890431111
O         0.6655800822    0.2056558943   -3.6177985492
O         2.9496862201    0.0916683647   -2.0773576167
H        -0.2563330744   -2.0459168085   -2.5118039659
H        -0.2076477017    0.1496441022   -4.0202819741
H         1.7139920902   -0.1336964048   -0.4646467700
H        -0.3383111293    0.0472027698   -1.8278475356
O         1.3247484052    1.7812610481   -1.2728154322
O         2.2184430219    2.6226479715   -1.6799752844
$end

$rem
BASIS = 6-311++G(2df,2p)
GUI = 2
JOB_TYPE = Frequency
METHOD = wB97M-V
SOLVENT_METHOD = SMD
SCF_ALGORITHM = DIIS_GDM
MAX_SCF_CYCLES = 400
SCF_CONVERGENCE = 7
THRESH = 12
$end
--------------------------------------------------------------

   21    -454.7881083057      8.64e-08  Convergence criterion met
 Total energy in the final basis set =     -454.7838339113
   21    -454.7881124840      4.95e-08  Convergence criterion met
 Total energy in the final basis set =     -454.7838324826
   20    -454.7881019111      6.03e-08  Convergence criterion met
 Total energy in the final basis set =     -454.7838331596
   21    -454.7881077514      5.31e-08  Convergence criterion met
 Total energy in the final basis set =     -454.7838339334
   20    -454.7881081654      9.30e-08  Convergence criterion met
 Total energy in the final basis set =     -454.7838331967
   20    -454.7881060093      7.35e-08  Convergence criterion met
 Total energy in the final basis set =     -454.7838330600
   20    -454.7881084332      6.75e-08  Convergence criterion met
 Total energy in the final basis set =     -454.7838325998
   20    -454.7881070278      8.17e-08  Convergence criterion met
 Total energy in the final basis set =     -454.7838336308
   20    -454.7881084108      6.77e-08  Convergence criterion met
 Total energy in the final basis set =     -454.7838338795
   20    -454.7881074674      5.97e-08  Convergence criterion met
 Total energy in the final basis set =     -454.7838332493
   20    -454.7881082167      7.87e-08  Convergence criterion met
 Total energy in the final basis set =     -454.7838336459
   21    -454.7881079037      2.64e-08  Convergence criterion met
 Total energy in the final basis set =     -454.7838333442
   20    -454.7881077779      9.89e-08  Convergence criterion met
 Total energy in the final basis set =     -454.7838335485
   20    -454.7881083483      8.89e-08  Convergence criterion met
 Total energy in the final basis set =     -454.7838339179
   20    -454.7881080664      6.59e-08  Convergence criterion met
 Total energy in the final basis set =     -454.7838337079

                    Orbital Energies (a.u.)
 --------------------------------------------------------------

 Alpha MOs
 -- Occupied --
-19.4090 -19.3799 -19.3411 -19.3401 -19.2716 -10.4341 -10.4185  -1.2943
 -1.1961  -1.1302  -1.1100  -0.9340  -0.8202  -0.6923  -0.6485  -0.6440
 -0.5947  -0.5781  -0.5712  -0.5448  -0.5167  -0.4987  -0.4756  -0.4136
 -0.4078  -0.4011  -0.3666  -0.3382  -0.3284

 Beta MOs
 -- Occupied --
-19.3960 -19.3633 -19.3411 -19.3401 -19.2717 -10.4339 -10.4188  -1.2660
 -1.1959  -1.1301  -1.1096  -0.9006  -0.8131  -0.6873  -0.6460  -0.6435
 -0.5724  -0.5661  -0.5529  -0.5192  -0.4987  -0.4803  -0.4735  -0.4131
 -0.4070  -0.3947  -0.3351  -0.3228

          Ground-State Mulliken Net Atomic Charges

     Atom                 Charge (a.u.)    Spin (a.u.)
  --------------------------------------------------------
      1 C                    -0.044590      -0.014667
      2 C                    -0.056579       0.011510
      3 O                    -0.457354       0.000508
      4 O                    -0.452780      -0.000265
      5 O                    -0.731491      -0.005547
      6 H                     0.334614       0.000025
      7 H                     0.340195       0.000068
      8 H                     0.229183       0.006379
      9 H                     0.249662       0.000050
     10 O                    -0.083431       0.411505
     11 O                    -0.327430       0.590434
  --------------------------------------------------------
  Sum of atomic charges =    -1.000000

                    Cartesian Multipole Moments
 -----------------------------------------------------------------
    Charge (ESU x 10^10)
                -4.8032
    Dipole Moment (Debye)
         X     -17.4494      Y      -5.9039      Z      10.0773
       Tot      20.9974
    Quadrupole Moments (Debye-Ang)
        XX     -83.6890     XY      -8.3040     YY     -60.4161
        XZ      41.8253     YZ      10.5028     ZZ     -64.1616

             Standard Nuclear Orientation (Angstroms)
    I     Atom           X                Y                Z
 ----------------------------------------------------------------
    1      C       1.8089773900     0.1597908005    -1.5221501325
    2      C       0.5792040988    -0.2991611523    -2.3054470286
    3      O       0.6197325970    -1.7125805858    -2.2890431111
    4      O       0.6655800822     0.2056558943    -3.6177985492
    5      O       2.9496862201     0.0916683647    -2.0773576167
    6      H      -0.2563330744    -2.0459168085    -2.5118039659
    7      H      -0.2076477017     0.1496441022    -4.0202819741
    8      H       1.7139920902    -0.1336964048    -0.4646467700
    9      H      -0.3383111293     0.0472027698    -1.8278475356
   10      O       1.3247484052     1.7812610481    -1.2728154322
   11      O       2.2184430219     2.6226479715    -1.6799752844
 ----------------------------------------------------------------

 Frequency:        55.54                  95.65                 198.33
 Force Cnst:      0.0206                 0.0420                 0.1624
 Red. Mass:      11.3069                 7.7966                 7.0079
 IR Intens:        1.351                  2.082                 95.797
 Frequency:       233.88                 245.51                 285.37
 Force Cnst:      0.0744                 0.0608                 0.0906
 Red. Mass:       2.3079                 1.7130                 1.8878
 IR Intens:      169.662                 54.839                127.944
 Frequency:       305.76                 307.20                 441.11
 Force Cnst:      0.3712                 0.1274                 1.0758
 Red. Mass:       6.7389                 2.2905                 9.3839
 IR Intens:       42.335                 87.506                166.602
 Frequency:       546.16                 682.00                 777.75
 Force Cnst:      1.2104                 1.7688                 1.8064
 Red. Mass:       6.8871                 6.4546                 5.0686
 IR Intens:       91.960                127.907                 76.918
 Frequency:       895.01                1148.43                1192.29
 Force Cnst:      1.3495                 0.9749                 1.3903
 Red. Mass:       2.8594                 1.2546                 1.6599
 IR Intens:       29.942                211.288                 95.577
 Frequency:      1209.53                1246.21                1274.63
 Force Cnst:      0.9488                 1.8757                 3.3150
 Red. Mass:       1.1008                 2.0499                 3.4631
 IR Intens:       47.717                128.093                272.457
 Frequency:      1318.82                1346.94                1406.96
 Force Cnst:      7.1469                 1.7780                 1.5053
 Red. Mass:       6.9742                 1.6634                 1.2907
 IR Intens:       68.707                114.615                 65.350
 Frequency:      1463.85                1511.74                2952.03
 Force Cnst:      2.4728                 3.6302                 5.5567
 Red. Mass:       1.9586                 2.6960                 1.0822
 IR Intens:      246.759                149.901                187.048
 Frequency:      3081.87                3828.49                3833.53
 Force Cnst:      6.0832                 9.2130                 9.2378
 Red. Mass:       1.0871                 1.0668                 1.0669
 IR Intens:       64.782                132.555                133.927

 STANDARD THERMODYNAMIC QUANTITIES AT   298.15 K  AND     1.00 ATM

   This Molecule has  0 Imaginary Frequencies
   Zero point vibrational energy:       45.581 kcal/mol

   Atom    1 Element C  Has Mass   12.00000
   Atom    2 Element C  Has Mass   12.00000
   Atom    3 Element O  Has Mass   15.99491
   Atom    4 Element O  Has Mass   15.99491
   Atom    5 Element O  Has Mass   15.99491
   Atom    6 Element H  Has Mass    1.00783
   Atom    7 Element H  Has Mass    1.00783
   Atom    8 Element H  Has Mass    1.00783
   Atom    9 Element H  Has Mass    1.00783
   Atom   10 Element O  Has Mass   15.99491
   Atom   11 Element O  Has Mass   15.99491
   Molecular Mass:   108.005870 amu
   Principal axes and moments of inertia in amu*Bohr^2:
                             1           2           3
    Eigenvalues --      377.35584   988.85077  1094.25400
          X               0.40130     0.72955    -0.55381
          Y               0.86638    -0.49855    -0.02897
          Z               0.29724     0.46818     0.83214
   Rotational Symmetry Number is   1
   The Molecule is an Asymmetric Top
   Translational Enthalpy:        0.889 kcal/mol
   Rotational Enthalpy:           0.889 kcal/mol
   Vibrational Enthalpy:         48.867 kcal/mol
   gas constant (RT):             0.592 kcal/mol
   Translational Entropy:        39.947  cal/mol.K
   Rotational Entropy:           27.503  cal/mol.K
   Vibrational Entropy:          20.534  cal/mol.K

   Total Enthalpy:               51.237 kcal/mol
   Total Entropy:                87.985  cal/mol.K
 Total job time:  7238.96s(wall), 56039.77s(cpu)
        *  Thank you very much for using Q-Chem.  Have a nice day.  *
