 Q-Chem 5.4, Q-Chem, Inc., Pleasanton, CA (2021)
 Q-Chem 5.4.1 for Intel X86 EM64T Linux

User input:
--------------------------------------------------------------
$molecule
-1 2
C         1.8194099056    0.1366135808   -1.4725155938
C         0.5832048322   -0.2890755935   -2.2703443059
O         0.6272724627   -1.7038411751   -2.3173667447
O         0.6824404389    0.2804111209   -3.5580107426
O         2.9527185606    0.0495060781   -2.0341008923
H        -0.2404047928   -2.0092854818   -2.6289070939
H        -0.1807165047    0.1653891643   -3.9873825848
H         1.7046694738   -0.1564445128   -0.4074488158
H        -0.3413807856    0.0374938868   -1.7779305868
O         1.3657848216    1.7814173832   -1.2058312770
O         2.1050735876    2.5743315489   -1.9293287626
$end

$rem
BASIS = 6-311++G(2df,2p)
GUI = 2
JOB_TYPE = Optimization
METHOD = wB97M-V
SCF_ALGORITHM = DIIS_GDM
MAX_SCF_CYCLES = 400
GEOM_OPT_MAX_CYCLES = 150
SCF_CONVERGENCE = 7
THRESH = 12
UNRESTRICTED = 1
Solvent_method = SMD
$end
--------------------------------------------------------------

   21    -454.7872664331      9.27e-08  Convergence criterion met
 Total energy in the final basis set =     -454.7829886538
   21    -454.7879404912      8.83e-08  Convergence criterion met
 Total energy in the final basis set =     -454.7836643369
   20    -454.7880677565      9.92e-08  Convergence criterion met
 Total energy in the final basis set =     -454.7837864566
   20    -454.7880954052      7.16e-08  Convergence criterion met
 Total energy in the final basis set =     -454.7838166812
   20    -454.7881029841      8.06e-08  Convergence criterion met
 Total energy in the final basis set =     -454.7838264413
   20    -454.7881057864      1.00e-07  Convergence criterion met
 Total energy in the final basis set =     -454.7838303063
   20    -454.7881080150      6.78e-08  Convergence criterion met
 Total energy in the final basis set =     -454.7838330482

             Standard Nuclear Orientation (Angstroms)
    I     Atom           X                Y                Z
 ----------------------------------------------------------------
    1      C       1.8089773900     0.1597908005    -1.5221501325
    2      C       0.5792040988    -0.2991611523    -2.3054470286
    3      O       0.6197325970    -1.7125805858    -2.2890431111
    4      O       0.6655800822     0.2056558943    -3.6177985492
    5      O       2.9496862201     0.0916683647    -2.0773576167
    6      H      -0.2563330744    -2.0459168085    -2.5118039659
    7      H      -0.2076477017     0.1496441022    -4.0202819741
    8      H       1.7139920902    -0.1336964048    -0.4646467700
    9      H      -0.3383111293     0.0472027698    -1.8278475356
   10      O       1.3247484052     1.7812610481    -1.2728154322
   11      O       2.2184430219     2.6226479715    -1.6799752844
 ----------------------------------------------------------------

   20    -454.7881083058      6.38e-08  Convergence criterion met
 Total energy in the final basis set =     -454.7838339114
 Final energy is   -454.783833911374
 **  OPTIMIZATION CONVERGED  **

                    Orbital Energies (a.u.)
 --------------------------------------------------------------

 Alpha MOs
 -- Occupied --
-19.4090 -19.3799 -19.3411 -19.3401 -19.2716 -10.4341 -10.4185  -1.2945
 -1.1961  -1.1302  -1.1100  -0.9340  -0.8202  -0.6923  -0.6485  -0.6440
 -0.5948  -0.5781  -0.5712  -0.5448  -0.5167  -0.4987  -0.4756  -0.4136
 -0.4078  -0.4012  -0.3666  -0.3382  -0.3284

 Beta MOs
 -- Occupied --
-19.3960 -19.3632 -19.3411 -19.3401 -19.2717 -10.4339 -10.4187  -1.2662
 -1.1959  -1.1301  -1.1096  -0.9006  -0.8131  -0.6873  -0.6460  -0.6435
 -0.5724  -0.5662  -0.5529  -0.5192  -0.4987  -0.4804  -0.4735  -0.4131
 -0.4070  -0.3948  -0.3351  -0.3228

          Ground-State Mulliken Net Atomic Charges

     Atom                 Charge (a.u.)    Spin (a.u.)
  --------------------------------------------------------
      1 C                    -0.044627      -0.014677
      2 C                    -0.056554       0.011503
      3 O                    -0.457361       0.000506
      4 O                    -0.452763      -0.000258
      5 O                    -0.731542      -0.005556
      6 H                     0.334618       0.000025
      7 H                     0.340193       0.000067
      8 H                     0.229167       0.006380
      9 H                     0.249658       0.000051
     10 O                    -0.083374       0.411601
     11 O                    -0.327415       0.590357
  --------------------------------------------------------
  Sum of atomic charges =    -1.000000

                    Cartesian Multipole Moments
 -----------------------------------------------------------------
    Charge (ESU x 10^10)
                -4.8032
    Dipole Moment (Debye)
         X     -17.4499      Y      -5.9035      Z      10.0759
       Tot      20.9970
    Quadrupole Moments (Debye-Ang)
        XX     -83.6919     XY      -8.3048     YY     -60.4153
        XZ      41.8229     YZ      10.4984     ZZ     -64.1562

 Total job time:  891.41s(wall), 6911.46s(cpu)
        *  Thank you very much for using Q-Chem.  Have a nice day.  *
