 Q-Chem 5.4, Q-Chem, Inc., Pleasanton, CA (2021)
 Q-Chem 5.4.1 for Intel X86 EM64T Linux

User input:
--------------------------------------------------------------
$molecule
0 2
O        -0.7265937369    0.9841477964    0.4577690803
C        -0.2402478792   -0.2480819922    0.2787714565
O        -1.0332743381   -1.2873550349    0.0253175921
C         1.1606206866   -0.4586142849    0.3412688524
O         1.9284314593    0.6167230263    0.6653942023
O         1.7012960441   -1.5446342061    0.1197841305
H        -1.6551020347    0.9778739983    0.7336224659
H        -1.9370777822   -1.0038659970   -0.1746886398
H         1.3743443810    1.3906540943    0.8401361600
$end

$rem
BASIS = def2-TZVP
JOB_TYPE = SP
METHOD = wB97M-V
SCF_ALGORITHM = DIIS_GDM
MAX_SCF_CYCLES = 400
SCF_CONVERGENCE = 7
THRESH = 12
Solvent_method = SMD
$end
--------------------------------------------------------------

             Standard Nuclear Orientation (Angstroms)
    I     Atom           X                Y                Z
 ----------------------------------------------------------------
    1      O      -0.7265937369     0.9841477964     0.4577690803
    2      C      -0.2402478792    -0.2480819922     0.2787714565
    3      O      -1.0332743381    -1.2873550349     0.0253175921
    4      C       1.1606206866    -0.4586142849     0.3412688524
    5      O       1.9284314593     0.6167230263     0.6653942023
    6      O       1.7012960441    -1.5446342061     0.1197841305
    7      H      -1.6551020347     0.9778739983     0.7336224659
    8      H      -1.9370777822    -1.0038659970    -0.1746886398
    9      H       1.3743443810     1.3906540943     0.8401361600
 ----------------------------------------------------------------

   17    -378.9602570948      6.95e-08  Convergence criterion met
 Total energy in the final basis set =     -378.9519643819

                    Orbital Energies (a.u.)
 --------------------------------------------------------------

 Alpha MOs
 -- Occupied --
-19.3929 -19.3916 -19.3701 -19.3151 -10.4822 -10.4742  -1.2660  -1.2203
 -1.1918  -1.1407  -0.8728  -0.7307  -0.7206  -0.6802  -0.6107  -0.5882
 -0.5651  -0.5393  -0.5172  -0.4925  -0.4845  -0.4382  -0.4033  -0.2743

 Beta MOs
 -- Occupied --
-19.3898 -19.3881 -19.3689 -19.3099 -10.4739 -10.4730  -1.2578  -1.2160
 -1.1844  -1.1334  -0.8544  -0.7262  -0.7145  -0.6739  -0.5864  -0.5803
 -0.5583  -0.5224  -0.5116  -0.4872  -0.4588  -0.4142  -0.3962

          Ground-State Mulliken Net Atomic Charges

     Atom                 Charge (a.u.)    Spin (a.u.)
  --------------------------------------------------------
      1 O                    -0.439944       0.083062
      2 C                     0.312639       0.492808
      3 O                    -0.418314       0.095814
      4 C                     0.303955       0.107762
      5 O                    -0.437363       0.034113
      6 O                    -0.526025       0.186276
      7 H                     0.410904       0.002422
      8 H                     0.408020      -0.001078
      9 H                     0.386129      -0.001180
  --------------------------------------------------------
  Sum of atomic charges =     0.000000

                    Cartesian Multipole Moments
 -----------------------------------------------------------------
    Charge (ESU x 10^10)
                 0.0000
    Dipole Moment (Debye)
         X      -9.2437      Y       5.3003      Z       0.9572
       Tot      10.6984
    Quadrupole Moments (Debye-Ang)
        XX     -34.3015     XY       6.7847     YY     -40.3325
        XZ      -2.0732     YZ       2.4420     ZZ     -32.8525

 Total job time:  73.51s(wall), 290.28s(cpu)
        *  Thank you very much for using Q-Chem.  Have a nice day.  *
