 Q-Chem 5.4, Q-Chem, Inc., Pleasanton, CA (2021)
 Q-Chem 5.4.1 for Intel X86 EM64T Linux

User input:
--------------------------------------------------------------
$molecule
-1 2
C        -0.9167548059    1.7245666103   -0.1592717289
O        -0.7805538881    1.5610874849    1.0663494505
O        -0.9731624422    3.0236536776   -0.6539293518
H        -0.6915768965    3.7702593696    0.1119089561
O        -1.0175845438    0.8828030396   -1.0710642309
O        -0.8075355966    4.3196603114    1.2066211273
H        -0.8066619269    3.4997036066    1.7391682774
$end

$rem
BASIS = 6-311++G(2df,2p)
GUI = 2
JOB_TYPE = Frequency
METHOD = wB97M-V
SOLVENT_METHOD = SMD
SCF_ALGORITHM = DIIS_GDM
MAX_SCF_CYCLES = 400
SCF_CONVERGENCE = 7
THRESH = 12
$end

--------------------------------------------------------------

   30    -340.3377928610      5.01e-08  Convergence criterion met
 Total energy in the final basis set =     -340.3315469843
   26    -340.3377920263      2.67e-08  Convergence criterion met
 Total energy in the final basis set =     -340.3315465490
   26    -340.3377927977      2.64e-08  Convergence criterion met
 Total energy in the final basis set =     -340.3315465324
   26    -340.3377967523      2.68e-08  Convergence criterion met
 Total energy in the final basis set =     -340.3315461417
   26    -340.3377872806      2.65e-08  Convergence criterion met
 Total energy in the final basis set =     -340.3315460344
   26    -340.3377882386      2.61e-08  Convergence criterion met
 Total energy in the final basis set =     -340.3315455278
   26    -340.3377945835      2.71e-08  Convergence criterion met
 Total energy in the final basis set =     -340.3315455828
   26    -340.3377924486      2.64e-08  Convergence criterion met
 Frequency:     -2652.09                 104.93                 154.34
 Force Cnst:      4.3736                 0.0863                 0.0708
 Red. Mass:       1.0554                13.2975                 5.0472
 IR Intens:    36601.334                  1.011                 44.130
 Frequency:       332.17                 409.63                 550.15
 Force Cnst:      0.1376                 0.1402                 0.4804
 Red. Mass:       2.1169                 1.4178                 2.6940
 IR Intens:        3.239                155.007                129.410
 Frequency:       654.28                 763.19                 815.85
 Force Cnst:      1.9053                 0.5156                 2.7187
 Red. Mass:       7.5543                 1.5026                 6.9326
 IR Intens:       33.295                347.285                 88.397
 Frequency:       938.26                 991.05                1299.33
 Force Cnst:      2.3038                 1.3378                13.0625
 Red. Mass:       4.4417                 2.3119                13.1322
 IR Intens:      498.053                302.602                723.174
 Frequency:      1443.43                1630.20                3620.34
 Force Cnst:      1.4259                 9.4638                 8.2364
 Red. Mass:       1.1616                 6.0441                 1.0666
 IR Intens:      227.999               1136.072                380.968

 STANDARD THERMODYNAMIC QUANTITIES AT   298.15 K  AND     1.00 ATM

   This Molecule has  1 Imaginary Frequencies
   Zero point vibrational energy:       19.595 kcal/mol

   Atom    1 Element C  Has Mass   12.00000
   Atom    2 Element O  Has Mass   15.99491
   Atom    3 Element O  Has Mass   15.99491
   Atom    4 Element H  Has Mass    1.00783
   Atom    5 Element O  Has Mass   15.99491
   Atom    6 Element O  Has Mass   15.99491
   Atom    7 Element H  Has Mass    1.00783
   Molecular Mass:    77.995300 amu
   Principal axes and moments of inertia in amu*Bohr^2:
                             1           2           3
    Eigenvalues --      153.23776   530.88342   683.71628
          X               0.04577     0.09136     0.99477
          Y               0.86368    -0.50400     0.00655
          Z               0.50196     0.85886    -0.10198
   Rotational Symmetry Number is   1
   The Molecule is an Asymmetric Top
   Translational Enthalpy:        0.889 kcal/mol
   Rotational Enthalpy:           0.889 kcal/mol
   Vibrational Enthalpy:         21.248 kcal/mol
   gas constant (RT):             0.592 kcal/mol
   Translational Entropy:        38.977  cal/mol.K
   Rotational Entropy:           25.523  cal/mol.K
   Vibrational Entropy:           9.765  cal/mol.K

   Total Enthalpy:               23.618 kcal/mol
   Total Entropy:                74.265  cal/mol.K
 Total job time:  2390.82s(wall), 15736.27s(cpu)
        *  Thank you very much for using Q-Chem.  Have a nice day.  *
 Q-Chem 5.4, Q-Chem, Inc., Pleasanton, CA (2021)
 Q-Chem 5.4.1 for Intel X86 EM64T Linux

User input:
--------------------------------------------------------------

$molecule
read
$end

$rem
JOBTYPE            rpath
SCF_GUESS          read
RPATH_MAX_CYCLES   30
BASIS = 6-311++G(2df,2p)
METHOD = wB97M-V
SOLVENT_METHOD = SMD
SCF_ALGORITHM = DIIS_GDM
SCF_CONVERGENCE = 7
THRESH = 12
$end
--------------------------------------------------------------

 Total energy in the final basis set =     -340.3513574576
   23    -340.3581455110      5.37e-08  Convergence criterion met
 Total energy in the final basis set =     -340.3519755525
   23    -340.3561241016      7.30e-08  Convergence criterion met
 Total energy in the final basis set =     -340.3499572896
   23    -340.3581853565      6.55e-08  Convergence criterion met
 Total energy in the final basis set =     -340.3520154851
   23    -340.3552469787      7.80e-08  Convergence criterion met
 Total energy in the final basis set =     -340.3491005899
   23    -340.3582300538      6.16e-08  Convergence criterion met
 Total energy in the final basis set =     -340.3520619532
   23    -340.3582297757      9.87e-08  Convergence criterion met
 Total energy in the final basis set =     -340.3520605140
   24    -340.3582407983      5.01e-08  Convergence criterion met
 Total energy in the final basis set =     -340.3520721212

                    Orbital Energies (a.u.)
 --------------------------------------------------------------

 Alpha MOs
 -- Occupied --
-19.3949 -19.3472 -19.2941 -19.2889 -10.4880  -1.2245  -1.1351  -1.1196
 -1.0946  -0.7007  -0.6107  -0.5843  -0.5627  -0.5612  -0.5150  -0.5060
 -0.4559  -0.4201  -0.4021  -0.3823  -0.3648

 Beta MOs
 -- Occupied --
-19.3705 -19.3472 -19.2942 -19.2889 -10.4880  -1.2244  -1.1204  -1.0967
 -1.0615  -0.7005  -0.6053  -0.5740  -0.5619  -0.5510  -0.5009  -0.4277
 -0.4199  -0.4007  -0.3823  -0.3641

          Ground-State Mulliken Net Atomic Charges

     Atom                 Charge (a.u.)    Spin (a.u.)
  --------------------------------------------------------
      1 C                     0.550714      -0.000618
      2 O                    -0.689684       0.000015
      3 O                    -0.476440       0.000653
      4 H                     0.320202      -0.003806
      5 O                    -0.692526       0.001096
      6 O                    -0.348327       1.016079
      7 H                     0.336063      -0.013419
  --------------------------------------------------------
  Sum of atomic charges =    -1.000000

                    Cartesian Multipole Moments
 -----------------------------------------------------------------
    Charge (ESU x 10^10)
                -4.8032
    Dipole Moment (Debye)
         X       4.6544      Y      -6.9184      Z       1.1729
       Tot       8.4205
    Quadrupole Moments (Debye-Ang)
        XX     -34.3435     XY       6.5316     YY     -51.5248
        XZ      -1.9455     YZ      -2.4519     ZZ     -41.6469

             Standard Nuclear Orientation (Angstroms)
    I     Atom           X                Y                Z
 ----------------------------------------------------------------
    1      C      -0.9167548059     1.7245666103    -0.1592717289
    2      O      -0.7805538881     1.5610874849     1.0663494505
    3      O      -0.9731624422     3.0236536776    -0.6539293518
    4      H      -0.6915768965     3.7702593696     0.1119089561
    5      O      -1.0175845438     0.8828030396    -1.0710642309
    6      O      -0.8075355966     4.3196603114     1.2066211273
    7      H      -0.8066619269     3.4997036066     1.7391682774
 ----------------------------------------------------------------

 Total job time:  3464.96s(wall), 26946.84s(cpu)
        *  Thank you very much for using Q-Chem.  Have a nice day.  *
