 Q-Chem 5.4, Q-Chem, Inc., Pleasanton, CA (2021)
 Q-Chem 5.4.1 for Intel X86 EM64T Linux

User input:
--------------------------------------------------------------
$molecule
-1 2
C   -0.9037440    1.7901609   -0.1570075
O   -0.7708866    1.6705391    1.0804676
O   -0.9102249    3.0865070   -0.6633885
H   -0.7989518    3.7360866    0.1488310
O   -1.0325666    0.8993703   -1.0196253
O   -0.7540275    4.1619511    1.0798627
H   -0.8234287    3.4371191    1.7706425
$end

$rem
BASIS = 6-311++G(2df,2p)
GUI = 2
JOB_TYPE = Frequency
METHOD = wB97M-v
SCF_ALGORITHM = DIIS_GDM
MAX_SCF_CYCLES = 400
SCF_CONVERGENCE = 6
THRESH = 11
solvent_method = SMD
$end

--------------------------------------------------------------

   23    -340.3129621143      5.66e-07  Convergence criterion met
 Total energy in the final basis set =     -340.3069443925
   20    -340.3129624458      7.99e-07  Convergence criterion met
 Total energy in the final basis set =     -340.3069448582
   20    -340.3129608820      7.39e-07  Convergence criterion met
 Total energy in the final basis set =     -340.3069430376
   20    -340.3129483300      8.39e-07  Convergence criterion met
 Total energy in the final basis set =     -340.3069256228
   20    -340.3129741128      7.41e-07  Convergence criterion met
 Total energy in the final basis set =     -340.3069612603
   20    -340.3129736406      7.80e-07  Convergence criterion met
 Total energy in the final basis set =     -340.3069592092
   20    -340.3129478162      8.25e-07  Convergence criterion met
 Total energy in the final basis set =     -340.3069268424
   20    -340.3129588703      7.86e-07  Convergence criterion met
 Frequency:     -1530.97                -493.93                -179.40
 Force Cnst:      1.4396                 0.2025                 0.2907
 Red. Mass:       1.0425                 1.4086                15.3298
 IR Intens:      248.990               1118.199                  2.357
 Frequency:       285.76                 539.68                 682.56
 Force Cnst:      0.2969                 1.2395                 1.8635
 Red. Mass:       6.1702                 7.2229                 6.7888
 IR Intens:      160.602                613.261                 68.046
 Frequency:       698.67                 816.40                 930.42
 Force Cnst:      0.3318                 4.7434                 1.1895
 Red. Mass:       1.1538                12.0791                 2.3321
 IR Intens:      167.735                 65.129               3097.791
 Frequency:       953.58                1153.38                1273.73
 Force Cnst:      1.6509                 1.7174                 4.0181
 Red. Mass:       3.0814                 2.1911                 4.2036
 IR Intens:     2004.939               1065.401                834.181
 Frequency:      1518.14                1703.25                3310.42
 Force Cnst:      4.5031                 2.9210                 6.8817
 Red. Mass:       3.3161                 1.7089                 1.0658
 IR Intens:      803.935               7467.269                284.567

 STANDARD THERMODYNAMIC QUANTITIES AT   298.15 K  AND     1.00 ATM

   This Molecule has  3 Imaginary Frequencies
   Zero point vibrational energy:       19.822 kcal/mol

   Atom    1 Element C  Has Mass   12.00000
   Atom    2 Element O  Has Mass   15.99491
   Atom    3 Element O  Has Mass   15.99491
   Atom    4 Element H  Has Mass    1.00783
   Atom    5 Element O  Has Mass   15.99491
   Atom    6 Element O  Has Mass   15.99491
   Atom    7 Element H  Has Mass    1.00783
   Molecular Mass:    77.995300 amu
   Principal axes and moments of inertia in amu*Bohr^2:
                             1           2           3
    Eigenvalues --      150.33035   469.75840   619.77193
          X               0.06594     0.07330     0.99513
          Y               0.86552    -0.50045    -0.02049
          Z               0.49651     0.86266    -0.09644
   Rotational Symmetry Number is   1
   The Molecule is an Asymmetric Top
   Translational Enthalpy:        0.889 kcal/mol
   Rotational Enthalpy:           0.889 kcal/mol
   Vibrational Enthalpy:         20.496 kcal/mol
   gas constant (RT):             0.592 kcal/mol
   Translational Entropy:        38.977  cal/mol.K
   Rotational Entropy:           25.285  cal/mol.K
   Vibrational Entropy:           3.227  cal/mol.K

   Total Enthalpy:               22.866 kcal/mol
   Total Entropy:                67.489  cal/mol.K
 Total job time:  895.14s(wall), 26976.29s(cpu)
        *  Thank you very much for using Q-Chem.  Have a nice day.  *
 Q-Chem 5.4, Q-Chem, Inc., Pleasanton, CA (2021)
 Q-Chem 5.4.1 for Intel X86 EM64T Linux

User input:
--------------------------------------------------------------

$rem
JOBTYPE = ts
SCF_GUESS = read
GEOM_OPT_HESSIAN = read
MAX_SCF_CYCLES = 350
GEOM_OPT_DMAX = 60
GEOM_OPT_MAX_CYCLES = 250
METHOD = wB97M-v
BASIS = 6-311++G(2df,2p)
SCF_CONVERGENCE = 7
THRESH = 12
SCF_ALGORITHM = DIIS_GDM
solvent_method = SMD
$end

$molecule
read
$end
--------------------------------------------------------------

   26    -340.3377625489      2.79e-08  Convergence criterion met
 Total energy in the final basis set =     -340.3315324046
   26    -340.3377721198      2.31e-08  Convergence criterion met
 Total energy in the final basis set =     -340.3315350541
   26    -340.3377843307      2.47e-08  Convergence criterion met
 Total energy in the final basis set =     -340.3315371994
   26    -340.3377853074      2.63e-08  Convergence criterion met
 Total energy in the final basis set =     -340.3315403482
   26    -340.3377931545      2.55e-08  Convergence criterion met
 Total energy in the final basis set =     -340.3315423943
   26    -340.3377950169      3.05e-08  Convergence criterion met
 Total energy in the final basis set =     -340.3315464659

             Standard Nuclear Orientation (Angstroms)
    I     Atom           X                Y                Z
 ----------------------------------------------------------------
    1      C      -0.9167548059     1.7245666103    -0.1592717289
    2      O      -0.7805538881     1.5610874849     1.0663494505
    3      O      -0.9731624422     3.0236536776    -0.6539293518
    4      H      -0.6915768965     3.7702593696     0.1119089561
    5      O      -1.0175845438     0.8828030396    -1.0710642309
    6      O      -0.8075355966     4.3196603114     1.2066211273
    7      H      -0.8066619269     3.4997036066     1.7391682774
 ----------------------------------------------------------------

   26    -340.3377928613      2.70e-08  Convergence criterion met
 Total energy in the final basis set =     -340.3315469845
 Final energy is   -340.331546984529
 **  OPTIMIZATION CONVERGED  **

                    Orbital Energies (a.u.)
 --------------------------------------------------------------

 Alpha MOs
 -- Occupied --
-19.3789 -19.3752 -19.3018 -19.2985 -10.4930  -1.2365  -1.1528  -1.1136
 -1.1032  -0.7164  -0.6219  -0.5898  -0.5727  -0.5668  -0.5451  -0.4633
 -0.4537  -0.4311  -0.4084  -0.3882  -0.3710

 Beta MOs
 -- Occupied --
-19.3676 -19.3587 -19.2996 -19.2986 -10.4934  -1.2258  -1.1270  -1.1063
 -1.0771  -0.6912  -0.6094  -0.5715  -0.5651  -0.5519  -0.5068  -0.4353
 -0.4179  -0.4025  -0.3865  -0.3622

          Ground-State Mulliken Net Atomic Charges

     Atom                 Charge (a.u.)    Spin (a.u.)
  --------------------------------------------------------
      1 C                     0.523559      -0.023644
      2 O                    -0.658765       0.001925
      3 O                    -0.412956       0.383386
      4 H                     0.372320      -0.042974
      5 O                    -0.650465       0.074874
      6 O                    -0.504974       0.617076
      7 H                     0.331281      -0.010644
  --------------------------------------------------------
  Sum of atomic charges =    -1.000000

                    Cartesian Multipole Moments
 -----------------------------------------------------------------
    Charge (ESU x 10^10)
                -4.8032
    Dipole Moment (Debye)
         X       4.8114      Y      -7.9314      Z       1.2885
       Tot       9.3657
    Quadrupole Moments (Debye-Ang)
        XX     -35.7028     XY       8.6982     YY     -56.2330
        XZ      -2.0665     YZ      -0.2208     ZZ     -37.6498

 Total job time:  647.27s(wall), 19642.32s(cpu)
        *  Thank you very much for using Q-Chem.  Have a nice day.  *
