 Q-Chem 5.4, Q-Chem, Inc., Pleasanton, CA (2021)
 Q-Chem 5.4.1 for Intel X86 EM64T Linux

User input:
--------------------------------------------------------------
$molecule
-1 2
C         0.0335825890    0.2156391192    0.2364698461
O         1.2001413651    0.0826017418    0.8943481755
H        -1.1277621868    1.3766541534   -0.6298194523
C        -0.8393693190   -0.8929137460   -0.0274891381
O        -0.5062190370   -2.0526716429    0.3744233366
O        -1.9104150558   -0.6008046154   -0.6669935653
O        -0.2722929998    1.4647120681   -0.1745756269
H         1.6345905442    0.9437645218    0.9577898244
$end

$rem
BASIS = def2-QZVP
JOB_TYPE = SP
METHOD = wB97M-V
SCF_ALGORITHM = DIIS_GDM
MAX_SCF_CYCLES = 400
SCF_CONVERGENCE = 7
THRESH = 12
Solvent_method = SMD
$end
--------------------------------------------------------------

             Standard Nuclear Orientation (Angstroms)
    I     Atom           X                Y                Z
 ----------------------------------------------------------------
    1      C       0.0335825890     0.2156391192     0.2364698461
    2      O       1.2001413651     0.0826017418     0.8943481755
    3      H      -1.1277621868     1.3766541534    -0.6298194523
    4      C      -0.8393693190    -0.8929137460    -0.0274891381
    5      O      -0.5062190370    -2.0526716429     0.3744233366
    6      O      -1.9104150558    -0.6008046154    -0.6669935653
    7      O      -0.2722929998     1.4647120681    -0.1745756269
    8      H       1.6345905442     0.9437645218     0.9577898244
 ----------------------------------------------------------------

   16    -378.5293812867      9.00e-08  Convergence criterion met
 Total energy in the final basis set =     -378.5214299036

                    Orbital Energies (a.u.)
 --------------------------------------------------------------

 Alpha MOs
 -- Occupied --
-19.3708 -19.3673 -19.2741 -19.2727 -10.4435 -10.4321  -1.2373  -1.1689
 -1.1494  -1.0635  -0.8183  -0.7030  -0.6654  -0.5825  -0.5793  -0.5274
 -0.5168  -0.5083  -0.4973  -0.4638  -0.3747  -0.3744  -0.3534  -0.2409

 Beta MOs
 -- Occupied --
-19.3677 -19.3641 -19.2716 -19.2701 -10.4338 -10.4315  -1.2287  -1.1619
 -1.1446  -1.0582  -0.7991  -0.6966  -0.6585  -0.5777  -0.5498  -0.5232
 -0.5125  -0.5041  -0.4797  -0.4374  -0.3685  -0.3535  -0.3501

          Ground-State Mulliken Net Atomic Charges

     Atom                 Charge (a.u.)    Spin (a.u.)
  --------------------------------------------------------
      1 C                     0.221067       0.606245
      2 O                    -0.405991       0.078718
      3 H                     0.319350      -0.004932
      4 C                     0.302011       0.063117
      5 O                    -0.675675       0.093279
      6 O                    -0.688536       0.088704
      7 O                    -0.405939       0.079760
      8 H                     0.333713      -0.004891
  --------------------------------------------------------
  Sum of atomic charges =    -1.000000

                    Cartesian Multipole Moments
 -----------------------------------------------------------------
    Charge (ESU x 10^10)
                -4.8032
    Dipole Moment (Debye)
         X       6.3436      Y       9.5953      Z       0.3500
       Tot      11.5080
    Quadrupole Moments (Debye-Ang)
        XX     -45.5478     XY      -5.5056     YY     -52.3651
        XZ      -2.3942     YZ       2.5227     ZZ     -37.9181

 Total job time:  712.94s(wall), 2833.82s(cpu)
        *  Thank you very much for using Q-Chem.  Have a nice day.  *
