 Q-Chem 5.4, Q-Chem, Inc., Pleasanton, CA (2021)
 Q-Chem 5.4.1 for Intel X86 EM64T Linux

User input:
--------------------------------------------------------------
$molecule
0 2
C         1.1615807636   -0.4074924836   -0.5150054710
O         1.8213677505   -1.2727594109   -1.4073207325
C        -0.2462547288   -0.2583139380   -1.0850301505
O        -1.0133241650   -1.3464294414   -1.1122229812
O        -0.4690515222    0.6252861311   -1.9847555968
O         1.7838563449    0.8381822799   -0.4082250798
H         1.1195300393   -0.8326475168    0.4870387697
H         2.6071645074   -1.6173517013   -0.9668740601
H        -0.6944474561   -2.0145927183   -0.4878923877
H        -1.0189267514    1.4576357197   -1.3587879502
H         1.6613901978    1.3100819932   -1.2442186843
O        -0.9871073900    0.7206179258    0.3594779241
O        -1.4241427901    1.7735829607   -0.2276536999
$end

$rem
BASIS = 6-311++G(2df,2p)
GUI = 2
JOB_TYPE = Frequency
METHOD = wB97M-V
SOLVENT_METHOD = SMD
SCF_ALGORITHM = DIIS_GDM
MAX_SCF_CYCLES = 400
SCF_CONVERGENCE = 7
THRESH = 12
UNRESTRICTED = 1
SYMMETRY_IGNORE = 1
$end

--------------------------------------------------------------

   21    -530.4924771238      6.25e-08  Convergence criterion met
 Total energy in the final basis set =     -530.4872293285
   19    -530.4924826087      7.26e-08  Convergence criterion met
 Total energy in the final basis set =     -530.4872283374
   19    -530.4924698262      7.08e-08  Convergence criterion met
 Total energy in the final basis set =     -530.4872283628
   19    -530.4924809518      7.23e-08  Convergence criterion met
 Total energy in the final basis set =     -530.4872282947
   19    -530.4924715808      7.15e-08  Convergence criterion met
 Total energy in the final basis set =     -530.4872282786
   19    -530.4924742957      7.22e-08  Convergence criterion met
 Total energy in the final basis set =     -530.4872281430
   19    -530.4924777421      7.05e-08  Convergence criterion met
 Total energy in the final basis set =     -530.4872281211
   19    -530.4924740691      7.18e-08  Convergence criterion met
 Frequency:     -1010.20                  71.08                 106.56
 Force Cnst:      0.8053                 0.0196                 0.0608
 Red. Mass:       1.3393                 6.5959                 9.0914
 IR Intens:      770.769                  0.545                  0.627
 Frequency:       211.19                 232.09                 275.58
 Force Cnst:      0.2242                 0.0957                 0.0655
 Red. Mass:       8.5324                 3.0144                 1.4630
 IR Intens:        8.147                129.594                187.051
 Frequency:       286.73                 304.67                 359.33
 Force Cnst:      0.1025                 0.1786                 0.1652
 Red. Mass:       2.1156                 3.2653                 2.1715
 IR Intens:      146.753                145.336                151.350
 Frequency:       444.20                 480.69                 534.79
 Force Cnst:      0.3605                 0.1956                 0.9346
 Red. Mass:       3.1013                 1.4366                 5.5462
 IR Intens:      125.473                 59.317                435.781
 Frequency:       594.30                 659.91                 720.30
 Force Cnst:      1.2198                 1.9895                 1.9992
 Red. Mass:       5.8616                 7.7538                 6.5399
 IR Intens:       52.499                 16.440                 43.592
 Frequency:       843.79                 877.94                1019.32
 Force Cnst:      2.6141                 2.0902                 0.6547
 Red. Mass:       6.2316                 4.6027                 1.0694
 IR Intens:      738.482                  7.363                132.447
 Frequency:      1152.69                1214.26                1219.08
 Force Cnst:      2.5313                 1.5111                 0.9740
 Red. Mass:       3.2335                 1.7395                 1.1123
 IR Intens:      379.923                 31.159                 82.775
 Frequency:      1262.58                1271.20                1323.11
 Force Cnst:      2.0868                 2.6568                 2.2096
 Red. Mass:       2.2218                 2.7905                 2.1423
 IR Intens:      252.903                520.419                142.428
 Frequency:      1352.75                1420.14                1478.69
 Force Cnst:      8.0398                 1.5323                 2.2827
 Red. Mass:       7.4570                 1.2895                 1.7719
 IR Intens:       42.515                 81.752                 61.388
 Frequency:      1577.02                1886.84                3117.21
 Force Cnst:      5.5872                 2.2046                 6.2304
 Red. Mass:       3.8130                 1.0510                 1.0883
 IR Intens:      439.147                112.012                 19.918
 Frequency:      3765.56                3770.02                3818.45
 Force Cnst:      8.9024                 8.9276                 9.1640
 Red. Mass:       1.0656                 1.0661                 1.0667
 IR Intens:      144.525                249.924                173.483

 STANDARD THERMODYNAMIC QUANTITIES AT   298.15 K  AND     1.00 ATM

   This Molecule has  1 Imaginary Frequencies
   Zero point vibrational energy:       53.826 kcal/mol

   Atom    1 Element C  Has Mass   12.00000
   Atom    2 Element O  Has Mass   15.99491
   Atom    3 Element C  Has Mass   12.00000
   Atom    4 Element O  Has Mass   15.99491
   Atom    5 Element O  Has Mass   15.99491
   Atom    6 Element O  Has Mass   15.99491
   Atom    7 Element H  Has Mass    1.00783
   Atom    8 Element H  Has Mass    1.00783
   Atom    9 Element H  Has Mass    1.00783
   Atom   10 Element H  Has Mass    1.00783
   Atom   11 Element H  Has Mass    1.00783
   Atom   12 Element O  Has Mass   15.99491
   Atom   13 Element O  Has Mass   15.99491
   Molecular Mass:   125.008610 amu
   Principal axes and moments of inertia in amu*Bohr^2:
                             1           2           3
    Eigenvalues --      588.48535  1038.23257  1286.10030
          X               0.81394     0.58002    -0.03280
          Y              -0.54499     0.74279    -0.38890
          Z              -0.20121     0.33442     0.92070
   Rotational Symmetry Number is   1
   The Molecule is an Asymmetric Top
   Translational Enthalpy:        0.889 kcal/mol
   Rotational Enthalpy:           0.889 kcal/mol
   Vibrational Enthalpy:         57.341 kcal/mol
   gas constant (RT):             0.592 kcal/mol
   Translational Entropy:        40.383  cal/mol.K
   Rotational Entropy:           28.154  cal/mol.K
   Vibrational Entropy:          20.808  cal/mol.K

   Total Enthalpy:               59.711 kcal/mol
   Total Entropy:                89.346  cal/mol.K
 Total job time:  11000.87s(wall), 85440.07s(cpu)
        *  Thank you very much for using Q-Chem.  Have a nice day.  *
 Q-Chem 5.4, Q-Chem, Inc., Pleasanton, CA (2021)
 Q-Chem 5.4.1 for Intel X86 EM64T Linux

User input:
--------------------------------------------------------------

$molecule
read
$end

$rem
JOBTYPE            rpath
SCF_GUESS          read
RPATH_MAX_CYCLES   30
BASIS = 6-311++G(2df,2p)
METHOD = wB97M-V
SOLVENT_METHOD = SMD
SCF_ALGORITHM = DIIS_GDM
SCF_CONVERGENCE = 7
THRESH = 12
$end
--------------------------------------------------------------

 Total energy in the final basis set =     -530.4993205886
   18    -530.5055949947      9.65e-08  Convergence criterion met
 Total energy in the final basis set =     -530.5009961279
   17    -530.5055806345      8.50e-08  Convergence criterion met
 Total energy in the final basis set =     -530.5009721697
   18    -530.5056297609      6.78e-08  Convergence criterion met
 Total energy in the final basis set =     -530.5010266168
   18    -530.5055173639      9.41e-08  Convergence criterion met
 Total energy in the final basis set =     -530.5009431540
   19    -530.5058089023      2.92e-08  Convergence criterion met
 Total energy in the final basis set =     -530.5012195994
   17    -530.5055194984      7.93e-08  Convergence criterion met
 Total energy in the final basis set =     -530.5009280876
   18    -530.5058807622      9.21e-08  Convergence criterion met
 Total energy in the final basis set =     -530.5012906879

                    Orbital Energies (a.u.)
 --------------------------------------------------------------

 Alpha MOs
 -- Occupied --
-19.4720 -19.4349 -19.3735 -19.3679 -19.3547 -19.3536 -10.5259 -10.4610
 -1.3670  -1.2464  -1.2061  -1.1758  -1.1442  -1.0093  -0.8492  -0.7674
 -0.7238  -0.6988  -0.6670  -0.6451  -0.6221  -0.6070  -0.5816  -0.5474
 -0.5334  -0.5154  -0.4858  -0.4680  -0.4440  -0.4386  -0.4197  -0.4030
 -0.4020

 Beta MOs
 -- Occupied --
-19.4607 -19.4164 -19.3732 -19.3680 -19.3546 -19.3536 -10.5263 -10.4609
 -1.3421  -1.2430  -1.2058  -1.1754  -1.1440  -0.9760  -0.8431  -0.7657
 -0.7137  -0.6954  -0.6615  -0.6373  -0.5988  -0.5828  -0.5516  -0.5471
 -0.5224  -0.5113  -0.4761  -0.4670  -0.4438  -0.4308  -0.4149  -0.3908

          Ground-State Mulliken Net Atomic Charges

     Atom                 Charge (a.u.)    Spin (a.u.)
  --------------------------------------------------------
      1 C                    -0.071080       0.000712
      2 O                    -0.418321       0.000762
      3 C                     0.189544      -0.005970
      4 O                    -0.404210       0.012573
      5 O                    -0.415648      -0.001087
      6 O                    -0.429070      -0.001770
      7 H                     0.314515       0.000075
      8 H                     0.340677       0.000147
      9 H                     0.358080      -0.001099
     10 H                     0.345164      -0.004323
     11 H                     0.346601       0.000429
     12 O                    -0.012423       0.342702
     13 O                    -0.143827       0.656849
  --------------------------------------------------------
  Sum of atomic charges =     0.000000

                    Cartesian Multipole Moments
 -----------------------------------------------------------------
    Charge (ESU x 10^10)
                 0.0000
    Dipole Moment (Debye)
         X       2.2780      Y      -2.2850      Z       1.6894
       Tot       3.6420
    Quadrupole Moments (Debye-Ang)
        XX     -46.2848     XY      -3.8607     YY     -40.3982
        XZ      -0.7771     YZ      -8.2154     ZZ     -54.0985

             Standard Nuclear Orientation (Angstroms)
    I     Atom           X                Y                Z
 ----------------------------------------------------------------
    1      C       1.1615807636    -0.4074924836    -0.5150054710
    2      O       1.8213677505    -1.2727594109    -1.4073207325
    3      C      -0.2462547288    -0.2583139380    -1.0850301505
    4      O      -1.0133241650    -1.3464294414    -1.1122229812
    5      O      -0.4690515222     0.6252861311    -1.9847555968
    6      O       1.7838563449     0.8381822799    -0.4082250798
    7      H       1.1195300393    -0.8326475168     0.4870387697
    8      H       2.6071645074    -1.6173517013    -0.9668740601
    9      H      -0.6944474561    -2.0145927183    -0.4878923877
   10      H      -1.0189267514     1.4576357197    -1.3587879502
   11      H       1.6613901978     1.3100819932    -1.2442186843
   12      O      -0.9871073900     0.7206179258     0.3594779241
   13      O      -1.4241427901     1.7735829607    -0.2276536999
 ----------------------------------------------------------------

 Total job time:  10510.57s(wall), 81537.90s(cpu)
        *  Thank you very much for using Q-Chem.  Have a nice day.  *
