 Q-Chem 5.4, Q-Chem, Inc., Pleasanton, CA (2021)
 Q-Chem 5.4.1 for Intel X86 EM64T Linux

User input:
--------------------------------------------------------------
$molecule
0 2
C    1.2777911   -0.3060398   -0.4739894
O    2.0092673   -0.9429561   -1.4922058
C   -0.2154340   -0.2156908   -0.8457810
O   -0.7723751   -1.4875899   -1.0510245
O   -0.3852480    0.5433223   -1.9922977
O    1.8121165    0.9709684   -0.2357782
H    1.3853771   -0.8828487    0.4738621
H    1.8811285   -1.9202013   -1.3722899
H   -0.7985605   -1.9390882   -0.1669553
H   -1.0917685    1.4175331   -1.5284994
H    1.8995485    1.4246694   -1.1146290
O   -1.1157607    0.6192267    0.3096402
O   -1.5844474    1.6944947   -0.4615222
$end

$rem
BASIS = 6-311++G(2df,2p)
GUI = 2
JOB_TYPE = Frequency
METHOD = wB97M-V
SCF_ALGORITHM = DIIS_GDM
MAX_SCF_CYCLES = 400
SCF_CONVERGENCE = 6
THRESH = 11
SYMMETRY_IGNORE = 1
solvent_method = SMD
$end

--------------------------------------------------------------

   21    -530.4521818729      8.80e-07  Convergence criterion met
 Total energy in the final basis set =     -530.4482595580
   17    -530.4521935187      6.12e-07  Convergence criterion met
 Total energy in the final basis set =     -530.4482655075
   16    -530.4521686252      9.44e-07  Convergence criterion met
 Total energy in the final basis set =     -530.4482518236
   17    -530.4521871141      6.25e-07  Convergence criterion met
 Total energy in the final basis set =     -530.4482614488
   16    -530.4521747720      9.83e-07  Convergence criterion met
 Total energy in the final basis set =     -530.4482553530
   17    -530.4522545236      6.35e-07  Convergence criterion met
 Total energy in the final basis set =     -530.4483340606
   16    -530.4521072151      8.87e-07  Convergence criterion met
 Total energy in the final basis set =     -530.4481828004
   17    -530.4521546852      6.08e-07  Convergence criterion met
 Frequency:     -1098.37                 130.57                 164.98
 Force Cnst:      0.8849                 0.0919                 0.1148
 Red. Mass:       1.2450                 9.1448                 7.1619
 IR Intens:      951.661                  2.104                  2.514
 Frequency:       271.59                 303.71                 327.01
 Force Cnst:      0.2788                 0.4061                 0.4307
 Red. Mass:       6.4160                 7.4717                 6.8360
 IR Intens:       11.533                 27.131                209.238
 Frequency:       396.82                 444.34                 547.14
 Force Cnst:      0.7624                 0.7223                 0.7952
 Red. Mass:       8.2180                 6.2090                 4.5084
 IR Intens:        1.967                 26.412                 74.446
 Frequency:       591.84                 619.56                 626.14
 Force Cnst:      0.6815                 0.2581                 0.2855
 Red. Mass:       3.3022                 1.1412                 1.2360
 IR Intens:      284.880                266.540                250.470
 Frequency:       651.33                 664.16                 762.70
 Force Cnst:      0.3693                 1.2213                 2.8100
 Red. Mass:       1.4776                 4.6992                 8.1987
 IR Intens:       73.455                 22.763                137.283
 Frequency:       821.78                 878.07                 905.08
 Force Cnst:      3.9564                 4.2779                 3.3731
 Red. Mass:       9.9434                 9.4171                 6.9887
 IR Intens:      241.282                 92.198                317.283
 Frequency:      1039.32                1143.66                1204.93
 Force Cnst:      0.6776                 2.4276                 2.6733
 Red. Mass:       1.0648                 3.1501                 3.1252
 IR Intens:      137.314                116.394                563.654
 Frequency:      1249.77                1288.13                1303.57
 Force Cnst:      2.9156                 3.1066                 1.0882
 Red. Mass:       3.1682                 3.1777                 1.0869
 IR Intens:       92.913                246.840                139.153
 Frequency:      1409.24                1439.52                1455.84
 Force Cnst:      1.8970                 1.9776                 1.5731
 Red. Mass:       1.6212                 1.6198                 1.2597
 IR Intens:      216.951                153.363                 70.612
 Frequency:      1496.81                1830.59                2882.83
 Force Cnst:      2.1290                 2.0390                 5.3253
 Red. Mass:       1.6128                 1.0327                 1.0876
 IR Intens:       82.507                188.937                 49.008
 Frequency:      3452.17                3454.73                3458.25
 Force Cnst:      7.4822                 7.4933                 7.5111
 Red. Mass:       1.0656                 1.0656                 1.0660
 IR Intens:      150.645                 86.390                266.231

 STANDARD THERMODYNAMIC QUANTITIES AT   298.15 K  AND     1.00 ATM

   This Molecule has  1 Imaginary Frequencies
   Zero point vibrational energy:       53.203 kcal/mol

   Atom    1 Element C  Has Mass   12.00000
   Atom    2 Element O  Has Mass   15.99491
   Atom    3 Element C  Has Mass   12.00000
   Atom    4 Element O  Has Mass   15.99491
   Atom    5 Element O  Has Mass   15.99491
   Atom    6 Element O  Has Mass   15.99491
   Atom    7 Element H  Has Mass    1.00783
   Atom    8 Element H  Has Mass    1.00783
   Atom    9 Element H  Has Mass    1.00783
   Atom   10 Element H  Has Mass    1.00783
   Atom   11 Element H  Has Mass    1.00783
   Atom   12 Element O  Has Mass   15.99491
   Atom   13 Element O  Has Mass   15.99491
   Molecular Mass:   125.008610 amu
   Principal axes and moments of inertia in amu*Bohr^2:
                             1           2           3
    Eigenvalues --      602.51887  1059.12776  1298.93315
          X               0.88595     0.46378     0.00155
          Y              -0.43429     0.83078    -0.34814
          Z              -0.16275     0.30776     0.93744
   Rotational Symmetry Number is   1
   The Molecule is an Asymmetric Top
   Translational Enthalpy:        0.889 kcal/mol
   Rotational Enthalpy:           0.889 kcal/mol
   Vibrational Enthalpy:         55.999 kcal/mol
   gas constant (RT):             0.592 kcal/mol
   Translational Entropy:        40.383  cal/mol.K
   Rotational Entropy:           28.207  cal/mol.K
   Vibrational Entropy:          15.076  cal/mol.K

   Total Enthalpy:               58.369 kcal/mol
   Total Entropy:                83.666  cal/mol.K
 Total job time:  6490.48s(wall), 93229.03s(cpu)
        *  Thank you very much for using Q-Chem.  Have a nice day.  *
 Q-Chem 5.4, Q-Chem, Inc., Pleasanton, CA (2021)
 Q-Chem 5.4.1 for Intel X86 EM64T Linux

User input:
--------------------------------------------------------------

$rem
JOBTYPE = ts
SCF_GUESS = read
GEOM_OPT_HESSIAN = read
MAX_SCF_CYCLES = 350
GEOM_OPT_DMAX = 60
GEOM_OPT_MAX_CYCLES = 250
METHOD = wB97M-v
BASIS = 6-311++G(2df,2p)
SCF_CONVERGENCE = 7
THRESH = 12
SCF_ALGORITHM = DIIS_GDM
solvent_method = SMD
$end

$molecule
read
$end
--------------------------------------------------------------

   19    -530.4924558947      6.40e-08  Convergence criterion met
 Total energy in the final basis set =     -530.4872109497
   19    -530.4924556388      7.23e-08  Convergence criterion met
 Total energy in the final basis set =     -530.4872086203
   19    -530.4924726487      7.07e-08  Convergence criterion met
 Total energy in the final basis set =     -530.4872253836
   18    -530.4924764000      9.98e-08  Convergence criterion met
 Total energy in the final basis set =     -530.4872289368
   19    -530.4924768332      7.23e-08  Convergence criterion met
 Total energy in the final basis set =     -530.4872292956
   19    -530.4924722692      7.18e-08  Convergence criterion met
 Total energy in the final basis set =     -530.4872219900

             Standard Nuclear Orientation (Angstroms)
    I     Atom           X                Y                Z
 ----------------------------------------------------------------
    1      C       1.1615807636    -0.4074924836    -0.5150054710
    2      O       1.8213677505    -1.2727594109    -1.4073207325
    3      C      -0.2462547288    -0.2583139380    -1.0850301505
    4      O      -1.0133241650    -1.3464294414    -1.1122229812
    5      O      -0.4690515222     0.6252861311    -1.9847555968
    6      O       1.7838563449     0.8381822799    -0.4082250798
    7      H       1.1195300393    -0.8326475168     0.4870387697
    8      H       2.6071645074    -1.6173517013    -0.9668740601
    9      H      -0.6944474561    -2.0145927183    -0.4878923877
   10      H      -1.0189267514     1.4576357197    -1.3587879502
   11      H       1.6613901978     1.3100819932    -1.2442186843
   12      O      -0.9871073900     0.7206179258     0.3594779241
   13      O      -1.4241427901     1.7735829607    -0.2276536999
 ----------------------------------------------------------------

   19    -530.4924771235      7.00e-08  Convergence criterion met
 Total energy in the final basis set =     -530.4872293282
 Final energy is   -530.487229328229
 **  OPTIMIZATION CONVERGED  **

                    Orbital Energies (a.u.)
 --------------------------------------------------------------

 Alpha MOs
 -- Occupied --
-19.4467 -19.4428 -19.3905 -19.3554 -19.3543 -19.3535 -10.5200 -10.4643
 -1.3603  -1.2584  -1.2097  -1.1769  -1.1453  -0.9727  -0.8494  -0.7598
 -0.7240  -0.7023  -0.6577  -0.6311  -0.6235  -0.6124  -0.5816  -0.5484
 -0.5409  -0.5204  -0.4821  -0.4684  -0.4428  -0.4292  -0.4169  -0.3998
 -0.3973

 Beta MOs
 -- Occupied --
-19.4307 -19.4282 -19.3905 -19.3554 -19.3543 -19.3537 -10.5204 -10.4642
 -1.3332  -1.2568  -1.2097  -1.1766  -1.1452  -0.9341  -0.8466  -0.7590
 -0.7180  -0.7006  -0.6543  -0.6272  -0.5947  -0.5819  -0.5512  -0.5479
 -0.5287  -0.5132  -0.4762  -0.4674  -0.4425  -0.4254  -0.4153  -0.3830

          Ground-State Mulliken Net Atomic Charges

     Atom                 Charge (a.u.)    Spin (a.u.)
  --------------------------------------------------------
      1 C                    -0.033234       0.000589
      2 O                    -0.410802      -0.000304
      3 C                     0.124582      -0.016915
      4 O                    -0.327943       0.000843
      5 O                    -0.481577      -0.002312
      6 O                    -0.417005      -0.001677
      7 H                     0.319713       0.000279
      8 H                     0.340435      -0.000171
      9 H                     0.367856      -0.000518
     10 H                     0.382055      -0.008452
     11 H                     0.344895       0.000368
     12 O                    -0.103280       0.534436
     13 O                    -0.105694       0.493835
  --------------------------------------------------------
  Sum of atomic charges =     0.000000

                    Cartesian Multipole Moments
 -----------------------------------------------------------------
    Charge (ESU x 10^10)
                 0.0000
    Dipole Moment (Debye)
         X       2.3985      Y      -3.4239      Z       1.8970
       Tot       4.5907
    Quadrupole Moments (Debye-Ang)
        XX     -46.1760     XY      -2.7296     YY     -40.3521
        XZ      -1.1150     YZ      -6.4240     ZZ     -54.9241

 Total job time:  7077.12s(wall), 102094.15s(cpu)
        *  Thank you very much for using Q-Chem.  Have a nice day.  *
