 Q-Chem 5.4, Q-Chem, Inc., Pleasanton, CA (2021)
 Q-Chem 5.4.1 for Intel X86 EM64T Linux

User input:
--------------------------------------------------------------
$molecule
0 2
O         0.7139837603   -0.0221978848    0.0000000000
O        -0.5886126674    0.1177581209    0.0000000000
H        -0.9637405214   -0.7836068958    0.0000000000
$end

$rem
BASIS = def2-TZVP
JOB_TYPE = SP
METHOD = wB97M-V
SCF_ALGORITHM = DIIS_GDM
MAX_SCF_CYCLES = 400
SCF_CONVERGENCE = 7
THRESH = 12
Solvent_method = SMD
$end
--------------------------------------------------------------

             Standard Nuclear Orientation (Angstroms)
    I     Atom           X                Y                Z
 ----------------------------------------------------------------
    1      O       0.7139837603    -0.0221978848     0.0000000000
    2      O      -0.5886126674     0.1177581209     0.0000000000
    3      H      -0.9637405214    -0.7836068958     0.0000000000
 ----------------------------------------------------------------

   15    -150.9389095248      7.66e-08  Convergence criterion met
 Total energy in the final basis set =     -150.9378014631

                    Orbital Energies (a.u.)
 --------------------------------------------------------------

 Alpha MOs
 -- Occupied --
-19.4506 -19.4145  -1.3334  -0.9921  -0.6757  -0.6090  -0.5966  -0.4105
 -0.4037

 Beta MOs
 -- Occupied --
-19.4411 -19.3949  -1.3064  -0.9514  -0.6587  -0.5778  -0.5254  -0.3885

          Ground-State Mulliken Net Atomic Charges

     Atom                 Charge (a.u.)    Spin (a.u.)
  --------------------------------------------------------
      1 O                    -0.224675       0.711158
      2 O                    -0.185925       0.297647
      3 H                     0.410599      -0.008805
  --------------------------------------------------------
  Sum of atomic charges =     0.000000

                    Cartesian Multipole Moments
 -----------------------------------------------------------------
    Charge (ESU x 10^10)
                 0.0000
    Dipole Moment (Debye)
         X      -2.2307      Y      -1.9539      Z      -0.0000
       Tot       2.9655
    Quadrupole Moments (Debye-Ang)
        XX     -10.5623     XY       2.0354     YY     -10.2423
        XZ      -0.0000     YZ      -0.0000     ZZ     -11.0431

 Total job time:  9.19s(wall), 33.73s(cpu)
        *  Thank you very much for using Q-Chem.  Have a nice day.  *
