 Q-Chem 5.4, Q-Chem, Inc., Pleasanton, CA (2021)
 Q-Chem 5.4.1 for Intel X86 EM64T Linux

User input:
--------------------------------------------------------------
$molecule
1 1
O         0.2595232765    2.1431453211   -0.0361804989
H        -0.6678320335    1.9569356542    0.2016529386
H         0.8097129852    2.0782319870    0.7664747601
H         0.3176660719    3.0520395376   -0.3849776997
$end

$rem
BASIS = 6-311++G(2df,2p)
GUI = 2
JOB_TYPE = Frequency
METHOD = wB97M-V
SOLVENT_METHOD = SMD
SCF_ALGORITHM = DIIS_GDM
MAX_SCF_CYCLES = 400
SCF_CONVERGENCE = 7
THRESH = 12
SYMMETRY_IGNORE = 1
$end
--------------------------------------------------------------

   10     -76.8551751205      3.61e-08  Convergence criterion met
 Total energy in the final basis set =      -76.8516685209
    8     -76.8551739637      6.95e-08  Convergence criterion met
 Total energy in the final basis set =      -76.8516672901
    8     -76.8551738806      7.13e-08  Convergence criterion met
 Total energy in the final basis set =      -76.8516673596
    8     -76.8551740193      7.10e-08  Convergence criterion met
 Total energy in the final basis set =      -76.8516675807
    8     -76.8551744183      6.79e-08  Convergence criterion met
 Total energy in the final basis set =      -76.8516676619
    8     -76.8551740863      7.26e-08  Convergence criterion met
 Total energy in the final basis set =      -76.8516676582
    8     -76.8551744220      6.78e-08  Convergence criterion met
 Total energy in the final basis set =      -76.8516676551
    8     -76.8551734365      7.29e-08  Convergence criterion met
 Total energy in the final basis set =      -76.8516679128
    8     -76.8551739381      7.31e-08  Convergence criterion met
 Total energy in the final basis set =      -76.8516679249
    8     -76.8551752551      6.87e-08  Convergence criterion met
 Total energy in the final basis set =      -76.8516685285
    8     -76.8551747748      7.03e-08  Convergence criterion met
 Total energy in the final basis set =      -76.8516683036
    8     -76.8551749882      6.84e-08  Convergence criterion met
 Total energy in the final basis set =      -76.8516676971
    8     -76.8551737489      7.34e-08  Convergence criterion met
 Total energy in the final basis set =      -76.8516678415
    8     -76.8551743616      6.91e-08  Convergence criterion met
 Total energy in the final basis set =      -76.8516682426
    8     -76.8551755525      6.89e-08  Convergence criterion met
 Total energy in the final basis set =      -76.8516684728

                    Orbital Energies (a.u.)
 --------------------------------------------------------------

 Alpha MOs
 -- Occupied --
-19.4744  -1.2920  -0.7488  -0.7485  -0.5784

          Ground-State Mulliken Net Atomic Charges

     Atom                 Charge (a.u.)
  ----------------------------------------
      1 O                    -0.225176
      2 H                     0.408138
      3 H                     0.408426
      4 H                     0.408611
  ----------------------------------------
  Sum of atomic charges =     1.000000

                    Cartesian Multipole Moments
 -----------------------------------------------------------------
    Charge (ESU x 10^10)
                 4.8032
    Dipole Moment (Debye)
         X       0.4714      Y      11.8964      Z       1.5092
       Tot      12.0010
    Quadrupole Moments (Debye-Ang)
        XX      -3.1118     XY       2.0575     YY      24.8964
        XZ       1.0872     YZ       1.7995     ZZ      -4.2877

             Standard Nuclear Orientation (Angstroms)
    I     Atom           X                Y                Z
 ----------------------------------------------------------------
    1      O       0.2595232765     2.1431453211    -0.0361804989
    2      H      -0.6678320335     1.9569356542     0.2016529386
    3      H       0.8097129852     2.0782319870     0.7664747601
    4      H       0.3176660719     3.0520395376    -0.3849776997
 ----------------------------------------------------------------

 Frequency:      1015.06                1673.49                1676.77
 Force Cnst:      0.7065                 1.7529                 1.7593
 Red. Mass:       1.1638                 1.0623                 1.0621
 IR Intens:      519.233                130.108                127.373
 Frequency:      3645.04                3711.72                3718.26
 Force Cnst:      8.0112                 8.7956                 8.8323
 Red. Mass:       1.0234                 1.0836                 1.0843
 IR Intens:       72.289                507.208                508.714

 STANDARD THERMODYNAMIC QUANTITIES AT   298.15 K  AND     1.00 ATM

   This Molecule has  0 Imaginary Frequencies
   Zero point vibrational energy:       22.073 kcal/mol

   Atom    1 Element O  Has Mass   15.99491
   Atom    2 Element H  Has Mass    1.00783
   Atom    3 Element H  Has Mass    1.00783
   Atom    4 Element H  Has Mass    1.00783
   Molecular Mass:    19.018400 amu
   Principal axes and moments of inertia in amu*Bohr^2:
                             1           2           3
    Eigenvalues --        5.54690     5.55181     9.05482
          X               0.79300     0.52061    -0.31641
          Y              -0.21585     0.72577     0.65320
          Z               0.56971    -0.44969     0.68790
   Rotational Symmetry Number is   1
   The Molecule is an Asymmetric Top
   Translational Enthalpy:        0.889 kcal/mol
   Rotational Enthalpy:           0.889 kcal/mol
   Vibrational Enthalpy:         22.098 kcal/mol
   gas constant (RT):             0.592 kcal/mol
   Translational Entropy:        34.770  cal/mol.K
   Rotational Entropy:           13.397  cal/mol.K
   Vibrational Entropy:           0.099  cal/mol.K

   Total Enthalpy:               24.468 kcal/mol
   Total Entropy:                48.267  cal/mol.K
 Total job time:  114.26s(wall), 858.87s(cpu)
        *  Thank you very much for using Q-Chem.  Have a nice day.  *
