 Q-Chem 5.4, Q-Chem, Inc., Pleasanton, CA (2021)
 Q-Chem 5.4.1 for Intel X86 EM64T Linux

User input:
--------------------------------------------------------------
$molecule
1 1
O         0.2661503837    2.1293308970   -0.0506892538
H        -0.6697622568    1.9616356995    0.2065051631
H         0.8071874570    2.0830639571    0.7709634100
H         0.3154947162    3.0563219463   -0.3798098192
$end

$rem
BASIS = 6-311++G(2df,2p)
GUI = 2
JOB_TYPE = Optimization
METHOD = wB97M-V
SCF_ALGORITHM = DIIS_GDM
MAX_SCF_CYCLES = 400
GEOM_OPT_MAX_CYCLES = 150
SCF_CONVERGENCE = 7
THRESH = 12
Solvent_method = SMD
$end
--------------------------------------------------------------

   10     -76.8548736588      2.75e-08  Convergence criterion met
 Total energy in the final basis set =      -76.8513626023
    8     -76.8551375219      8.06e-08  Convergence criterion met
 Total energy in the final basis set =      -76.8516349816
    8     -76.8551738176      7.64e-08  Convergence criterion met
 Total energy in the final basis set =      -76.8516682072

             Standard Nuclear Orientation (Angstroms)
    I     Atom           X                Y                Z
 ----------------------------------------------------------------
    1      O       0.2595232765     2.1431453211    -0.0361804989
    2      H      -0.6678320335     1.9569356542     0.2016529386
    3      H       0.8097129852     2.0782319870     0.7664747601
    4      H       0.3176660719     3.0520395376    -0.3849776997
 ----------------------------------------------------------------

    8     -76.8551751194      6.91e-08  Convergence criterion met
 Total energy in the final basis set =      -76.8516685199
 Final energy is   -76.8516685198501
 **  OPTIMIZATION CONVERGED  **

                    Orbital Energies (a.u.)
 --------------------------------------------------------------

 Alpha MOs
 -- Occupied --
-19.4745  -1.2921  -0.7488  -0.7486  -0.5785

          Ground-State Mulliken Net Atomic Charges

     Atom                 Charge (a.u.)
  ----------------------------------------
      1 O                    -0.224872
      2 H                     0.408151
      3 H                     0.408395
      4 H                     0.408326
  ----------------------------------------
  Sum of atomic charges =     1.000000

                    Cartesian Multipole Moments
 -----------------------------------------------------------------
    Charge (ESU x 10^10)
                 4.8032
    Dipole Moment (Debye)
         X       0.4713      Y      11.8960      Z       1.5117
       Tot      12.0010
    Quadrupole Moments (Debye-Ang)
        XX      -3.1115     XY       2.0570     YY      24.8953
        XZ       1.0880     YZ       1.8076     ZZ      -4.2898

 Total job time:  18.84s(wall), 143.49s(cpu)
        *  Thank you very much for using Q-Chem.  Have a nice day.  *
