 Q-Chem 5.4, Q-Chem, Inc., Pleasanton, CA (2021)
 Q-Chem 5.4.1 for Intel X86 EM64T Linux

User input:
--------------------------------------------------------------
$molecule
0 3
O        -3.3016872316    4.4705652735    0.5345536189
O        -4.3059970684    3.9312274265    0.1697464811
$end

$rem
BASIS = 6-311++G(2df,2p)
GUI = 2
JOB_TYPE = Frequency
METHOD = wB97M-V
SOLVENT_METHOD = SMD
SCF_ALGORITHM = DIIS_GDM
MAX_SCF_CYCLES = 400
SCF_CONVERGENCE = 7
THRESH = 12
UNRESTRICTED = 1
SYMMETRY_IGNORE = 1
$end
--------------------------------------------------------------

   10    -150.3359393326      6.66e-08  Convergence criterion met
 Total energy in the final basis set =     -150.3359393326
    8    -150.3359376976      9.77e-08  Convergence criterion met
 Total energy in the final basis set =     -150.3359376976
    9    -150.3359387567      2.28e-08  Convergence criterion met
 Total energy in the final basis set =     -150.3359387567
    9    -150.3359386543      5.15e-08  Convergence criterion met
 Total energy in the final basis set =     -150.3359386543
   10    -150.3359393736      8.02e-09  Convergence criterion met
 Total energy in the final basis set =     -150.3359393736
    9    -150.3359389381      6.29e-08  Convergence criterion met
 Total energy in the final basis set =     -150.3359389381
    9    -150.3359394344      5.10e-08  Convergence criterion met
 Total energy in the final basis set =     -150.3359394344
   10    -150.3359387567      2.26e-08  Convergence criterion met
 Total energy in the final basis set =     -150.3359387567
   10    -150.3359376976      2.13e-08  Convergence criterion met
 Total energy in the final basis set =     -150.3359376976
    8    -150.3359393736      9.48e-08  Convergence criterion met
 Total energy in the final basis set =     -150.3359393736
    9    -150.3359386543      4.44e-08  Convergence criterion met
 Total energy in the final basis set =     -150.3359386543
   10    -150.3359394344      7.09e-09  Convergence criterion met
 Total energy in the final basis set =     -150.3359394344
    8    -150.3359389381      9.60e-08  Convergence criterion met
 Total energy in the final basis set =     -150.3359389381

                    Orbital Energies (a.u.)
 --------------------------------------------------------------

 Alpha MOs
 -- Occupied --
-19.4887 -19.4885  -1.4409  -0.9590  -0.6768  -0.6767  -0.6645  -0.4087
 -0.4087

 Beta MOs
 -- Occupied --
-19.4584 -19.4581  -1.3846  -0.8720  -0.6192  -0.5709  -0.5709

          Ground-State Mulliken Net Atomic Charges

     Atom                 Charge (a.u.)    Spin (a.u.)
  --------------------------------------------------------
      1 O                     0.000000       1.000000
      2 O                    -0.000000       1.000000
  --------------------------------------------------------
  Sum of atomic charges =     0.000000

                    Cartesian Multipole Moments
 -----------------------------------------------------------------
    Charge (ESU x 10^10)
                -0.0000
    Dipole Moment (Debye)
         X       0.0000      Y       0.0000      Z       0.0000
       Tot       0.0000
    Quadrupole Moments (Debye-Ang)
        XX     -10.5419     XY      -0.2040     YY     -10.2714
        XZ      -0.1383     YZ      -0.0742     ZZ     -10.2122

             Standard Nuclear Orientation (Angstroms)
    I     Atom           X                Y                Z
 ----------------------------------------------------------------
    1      O      -3.3016872316     4.4705652735     0.5345536189
    2      O      -4.3059970684     3.9312274265     0.1697464811
 ----------------------------------------------------------------

 Frequency:      1704.69
 Force Cnst:     27.3855
 Red. Mass:      15.9949
 IR Intens:        0.000

 STANDARD THERMODYNAMIC QUANTITIES AT   298.15 K  AND     1.00 ATM

   This Molecule has  0 Imaginary Frequencies
   Zero point vibrational energy:        2.437 kcal/mol

 Q-Chem warning in module 0, line  397:

  SYM_IGNORE is turned on for a linear molecule

    We detect a D*h symmetry
   Atom    1 Element O  Has Mass   15.99491
   Atom    2 Element O  Has Mass   15.99491
   Molecular Mass:    31.989820 amu
   Principal axes and moments of inertia in amu*Bohr^2:
                             1           2           3
    Eigenvalues --        0.00000    40.91446    40.91446
          X               0.83908    -0.53085    -0.11892
          Y               0.45061     0.80068    -0.39479
          Z               0.30479     0.27768     0.91104
   Rotational Symmetry Number is   2
   The Molecule is a Symmetric Top
   Translational Enthalpy:        0.889 kcal/mol
   Rotational Enthalpy:           0.889 kcal/mol
   Vibrational Enthalpy:          2.438 kcal/mol
   gas constant (RT):             0.592 kcal/mol
   Translational Entropy:        36.321  cal/mol.K
   Rotational Entropy:           10.442  cal/mol.K
   Vibrational Entropy:           0.005  cal/mol.K

   Total Enthalpy:                4.808 kcal/mol
   Total Entropy:                46.767  cal/mol.K
 Total job time:  60.36s(wall), 446.40s(cpu)
        *  Thank you very much for using Q-Chem.  Have a nice day.  *
