 Q-Chem 5.4, Q-Chem, Inc., Pleasanton, CA (2021)
 Q-Chem 5.4.1 for Intel X86 EM64T Linux

User input:
--------------------------------------------------------------
$molecule
0 2
C   -1.0823942   -0.4200636    0.6307444
O   -0.8462558   -1.5007508    1.4060023
O   -1.7683271   -0.5254759   -0.3736812
O   -1.7526764    0.9278718    2.0150610
O   -1.1400813    1.8577424    2.6731800
H   -1.2108333   -2.3695139    1.1847921
$end

$rem
BASIS = 6-311++G(2df,2p)
GUI = 2
JOB_TYPE = Frequency
METHOD = wB97M-V
SCF_ALGORITHM = DIIS_GDM
MAX_SCF_CYCLES = 400
SCF_CONVERGENCE = 6
THRESH = 11
SYMMETRY_IGNORE = 1
solvent_method = SMD
$end

--------------------------------------------------------------

   24    -339.4272168513      6.28e-07  Convergence criterion met
 Total energy in the final basis set =     -339.4208928909
   14    -339.4271205095      8.43e-07  Convergence criterion met
 Total energy in the final basis set =     -339.4207958173
   15    -339.4273123074      9.11e-07  Convergence criterion met
 Total energy in the final basis set =     -339.4209890962
   15    -339.4270584668      5.62e-07  Convergence criterion met
 Total energy in the final basis set =     -339.4207411764
   15    -339.4273741721      6.32e-07  Convergence criterion met
 Total energy in the final basis set =     -339.4210436001
   15    -339.4271415740      8.75e-07  Convergence criterion met
 Total energy in the final basis set =     -339.4208168228
   14    -339.4272904045      9.02e-07  Convergence criterion met
 Total energy in the final basis set =     -339.4209672875
   15    -339.4272658956      8.66e-07  Convergence criterion met
 Frequency:      -395.50                -215.30                 224.09
 Force Cnst:      0.3379                 0.0450                 0.1468
 Red. Mass:       3.6660                 1.6475                 4.9631
 IR Intens:      483.216                116.139                 28.162
 Frequency:       322.36                 441.02                 447.89
 Force Cnst:      0.8161                 1.8160                 1.4464
 Red. Mass:      13.3300                15.8465                12.2372
 IR Intens:        3.782                 14.112                126.805
 Frequency:       611.97                 890.32                1054.15
 Force Cnst:      0.6034                 3.4379                 2.1186
 Red. Mass:       2.7347                 7.3613                 3.2358
 IR Intens:      214.137                498.501                603.225
 Frequency:      1124.51                1545.39                3754.14
 Force Cnst:      2.1968                18.6907                 8.8573
 Red. Mass:       2.9485                13.2830                 1.0667
 IR Intens:       59.567                817.654                360.082

 STANDARD THERMODYNAMIC QUANTITIES AT   298.15 K  AND     1.00 ATM

   This Molecule has  2 Imaginary Frequencies
   Zero point vibrational energy:       14.890 kcal/mol

   Atom    1 Element C  Has Mass   12.00000
   Atom    2 Element O  Has Mass   15.99491
   Atom    3 Element O  Has Mass   15.99491
   Atom    4 Element O  Has Mass   15.99491
   Atom    5 Element O  Has Mass   15.99491
   Atom    6 Element H  Has Mass    1.00783
   Molecular Mass:    76.987470 amu
   Principal axes and moments of inertia in amu*Bohr^2:
                             1           2           3
    Eigenvalues --      163.33448   626.18363   757.55594
          X              -0.01021     0.42060     0.90719
          Y               0.77751    -0.56715     0.27170
          Z               0.62879     0.70812    -0.32123
   Rotational Symmetry Number is   1
   The Molecule is an Asymmetric Top
   Translational Enthalpy:        0.889 kcal/mol
   Rotational Enthalpy:           0.889 kcal/mol
   Vibrational Enthalpy:         15.970 kcal/mol
   gas constant (RT):             0.592 kcal/mol
   Translational Entropy:        38.938  cal/mol.K
   Rotational Entropy:           25.852  cal/mol.K
   Vibrational Entropy:           5.565  cal/mol.K

   Total Enthalpy:               18.339 kcal/mol
   Total Entropy:                70.356  cal/mol.K
 Total job time:  673.63s(wall), 10179.63s(cpu)
        *  Thank you very much for using Q-Chem.  Have a nice day.  *
 Q-Chem 5.4, Q-Chem, Inc., Pleasanton, CA (2021)
 Q-Chem 5.4.1 for Intel X86 EM64T Linux

User input:
--------------------------------------------------------------

$rem
JOBTYPE = ts
SCF_GUESS = read
GEOM_OPT_HESSIAN = read
MAX_SCF_CYCLES = 350
GEOM_OPT_DMAX = 60
GEOM_OPT_MAX_CYCLES = 250
METHOD = wB97M-v
BASIS = 6-311++G(2df,2p)
SCF_CONVERGENCE = 7
THRESH = 12
SCF_ALGORITHM = DIIS_GDM
solvent_method = SMD
$end

$molecule
read
$end
--------------------------------------------------------------

   17    -339.4574415343      5.04e-08  Convergence criterion met
 Total energy in the final basis set =     -339.4506472341
   17    -339.4574403126      5.08e-08  Convergence criterion met
 Total energy in the final basis set =     -339.4506480759
   17    -339.4574305150      4.25e-08  Convergence criterion met
 Total energy in the final basis set =     -339.4506458224
   17    -339.4574407195      4.87e-08  Convergence criterion met
 Total energy in the final basis set =     -339.4506480836
   17    -339.4574500530      4.40e-08  Convergence criterion met
 Total energy in the final basis set =     -339.4506467244
   17    -339.4574452117      4.32e-08  Convergence criterion met
 Total energy in the final basis set =     -339.4506481272

             Standard Nuclear Orientation (Angstroms)
    I     Atom           X                Y                Z
 ----------------------------------------------------------------
    1      C      -1.5116893994    -0.5633058112     0.5979297540
    2      O      -0.9394121686    -1.3084118198     1.5044541189
    3      O      -1.8451437686    -0.7730962409    -0.5197593096
    4      O      -1.6000247371     1.4841466712     1.8470778063
    5      O      -1.1368838551     1.3372906152     2.9483576054
    6      H      -0.7674141713    -2.2068134145     1.1580386250
 ----------------------------------------------------------------

   17    -339.4574470932      4.81e-08  Convergence criterion met
 Total energy in the final basis set =     -339.4506481388
 Final energy is   -339.450648138824
 **  OPTIMIZATION CONVERGED  **

                    Orbital Energies (a.u.)
 --------------------------------------------------------------

 Alpha MOs
 -- Occupied --
-19.4901 -19.4751 -19.4100 -19.3734 -10.4904  -1.4297  -1.2646  -1.1911
 -0.9550  -0.7575  -0.6706  -0.6696  -0.6584  -0.6337  -0.5835  -0.5823
 -0.4767  -0.4650  -0.4051  -0.3999

 Beta MOs
 -- Occupied --
-19.4615 -19.4468 -19.4127 -19.3795 -10.5018  -1.3768  -1.2755  -1.2033
 -0.8752  -0.7768  -0.6460  -0.6293  -0.6062  -0.5945  -0.5658  -0.5648
 -0.5004  -0.4682  -0.3251

          Ground-State Mulliken Net Atomic Charges

     Atom                 Charge (a.u.)    Spin (a.u.)
  --------------------------------------------------------
      1 C                     0.212691      -0.673891
      2 O                    -0.239092      -0.000612
      3 O                    -0.339583      -0.181913
      4 O                     0.007628       0.956783
      5 O                    -0.004776       0.939609
      6 H                     0.363131      -0.039976
  --------------------------------------------------------
  Sum of atomic charges =    -0.000000

                    Cartesian Multipole Moments
 -----------------------------------------------------------------
    Charge (ESU x 10^10)
                -0.0000
    Dipole Moment (Debye)
         X       1.1602      Y      -2.5407      Z       0.9583
       Tot       2.9529
    Quadrupole Moments (Debye-Ang)
        XX     -30.1575     XY       1.2107     YY     -20.1665
        XZ      -2.3357     YZ      -3.9673     ZZ     -31.4770

 Total job time:  1339.15s(wall), 20432.34s(cpu)
        *  Thank you very much for using Q-Chem.  Have a nice day.  *
