 Q-Chem 5.4, Q-Chem, Inc., Pleasanton, CA (2021)
 Q-Chem 5.4.1 for Intel X86 EM64T Linux

User input:
--------------------------------------------------------------
$molecule
-1 2
O        -0.5898693698    1.4364167686   -0.2011324283
C        -0.0505459724    0.4558973035    0.6364534286
O        -0.9992020981   -0.4709441896    1.0550590018
C         1.1382211719   -0.2198854210   -0.0797845773
O         2.1150602176    0.5155082449   -0.3422678855
O         1.0091565412   -1.4439638257   -0.3063138284
H        -1.2923185257    1.8935755434    0.2782478755
H        -0.6832252495   -1.3229325128    0.7021992984
H         0.3900654810    0.9778650496    1.5657085859
O         1.5169367837    1.7843143470    2.2297602170
H         2.0821964203    1.6320557921    1.4474164122
$end

$rem
BASIS = def2-QZVP
JOB_TYPE = SP
METHOD = wB97M-V
SCF_ALGORITHM = DIIS_GDM
MAX_SCF_CYCLES = 400
SCF_CONVERGENCE = 7
THRESH = 12
Solvent_method = SMD
$end
--------------------------------------------------------------

             Standard Nuclear Orientation (Angstroms)
    I     Atom           X                Y                Z
 ----------------------------------------------------------------
    1      O      -0.5898693698     1.4364167686    -0.2011324283
    2      C      -0.0505459724     0.4558973035     0.6364534286
    3      O      -0.9992020981    -0.4709441896     1.0550590018
    4      C       1.1382211719    -0.2198854210    -0.0797845773
    5      O       2.1150602176     0.5155082449    -0.3422678855
    6      O       1.0091565412    -1.4439638257    -0.3063138284
    7      H      -1.2923185257     1.8935755434     0.2782478755
    8      H      -0.6832252495    -1.3229325128     0.7021992984
    9      H       0.3900654810     0.9778650496     1.5657085859
   10      O       1.5169367837     1.7843143470     2.2297602170
   11      H       2.0821964203     1.6320557921     1.4474164122
 ----------------------------------------------------------------

   23    -454.9267607334      7.02e-08  Convergence criterion met
 Total energy in the final basis set =     -454.9201803777

                    Orbital Energies (a.u.)
 --------------------------------------------------------------

 Alpha MOs
 -- Occupied --
-19.3630 -19.3500 -19.3435 -19.2962 -19.2924 -10.4546 -10.4488  -1.2152
 -1.1721  -1.1429  -1.1165  -1.0902  -0.8166  -0.6897  -0.6494  -0.6214
 -0.5931  -0.5678  -0.5395  -0.5234  -0.5184  -0.4968  -0.4869  -0.4410
 -0.4206  -0.3935  -0.3806  -0.3703  -0.3557

 Beta MOs
 -- Occupied --
-19.3490 -19.3429 -19.3423 -19.2960 -19.2923 -10.4505 -10.4488  -1.2125
 -1.1713  -1.1403  -1.0913  -1.0635  -0.8090  -0.6831  -0.6442  -0.6086
 -0.5871  -0.5489  -0.5370  -0.5189  -0.5149  -0.4887  -0.4241  -0.4133
 -0.4096  -0.3795  -0.3715  -0.3642

          Ground-State Mulliken Net Atomic Charges

     Atom                 Charge (a.u.)    Spin (a.u.)
  --------------------------------------------------------
      1 O                    -0.465265       0.028858
      2 C                     0.259626       0.184208
      3 O                    -0.489997       0.031933
      4 C                     0.301495       0.002291
      5 O                    -0.586270       0.002466
      6 O                    -0.584696       0.006359
      7 H                     0.327373      -0.000324
      8 H                     0.315600       0.003740
      9 H                     0.089311      -0.013605
     10 O                    -0.467346       0.774143
     11 H                     0.300170      -0.020068
  --------------------------------------------------------
  Sum of atomic charges =    -1.000000

                    Cartesian Multipole Moments
 -----------------------------------------------------------------
    Charge (ESU x 10^10)
                -4.8032
    Dipole Moment (Debye)
         X      -7.4406      Y       0.4684      Z      -0.1214
       Tot       7.4563
    Quadrupole Moments (Debye-Ang)
        XX     -56.4651     XY      -2.7454     YY     -50.4570
        XZ       1.1094     YZ      -4.0262     ZZ     -54.1753

 Total job time:  1801.33s(wall), 7155.56s(cpu)
        *  Thank you very much for using Q-Chem.  Have a nice day.  *
