 Q-Chem 5.4, Q-Chem, Inc., Pleasanton, CA (2021)
 Q-Chem 5.4.1 for Intel X86 EM64T Linux

User input:
--------------------------------------------------------------
$molecule
0 2
O         0.7139837603   -0.0221978848    0.0000000000
O        -0.5886126674    0.1177581209    0.0000000000
H        -0.9637405214   -0.7836068958    0.0000000000
$end

$rem
BASIS = def2-TZVPD
JOB_TYPE = SP
METHOD = wB97M-V
SCF_ALGORITHM = DIIS_GDM
MAX_SCF_CYCLES = 400
SCF_CONVERGENCE = 7
THRESH = 12
Solvent_method = SMD
$end
--------------------------------------------------------------

             Standard Nuclear Orientation (Angstroms)
    I     Atom           X                Y                Z
 ----------------------------------------------------------------
    1      O       0.7139837603    -0.0221978848     0.0000000000
    2      O      -0.5886126674     0.1177581209     0.0000000000
    3      H      -0.9637405214    -0.7836068958     0.0000000000
 ----------------------------------------------------------------

   15    -150.9407165907      5.61e-08  Convergence criterion met
 Total energy in the final basis set =     -150.9396085290

                    Orbital Energies (a.u.)
 --------------------------------------------------------------

 Alpha MOs
 -- Occupied --
-19.4544 -19.4193  -1.3360  -0.9946  -0.6781  -0.6113  -0.5991  -0.4130
 -0.4062

 Beta MOs
 -- Occupied --
-19.4448 -19.3997  -1.3090  -0.9539  -0.6610  -0.5802  -0.5277  -0.3908

          Ground-State Mulliken Net Atomic Charges

     Atom                 Charge (a.u.)    Spin (a.u.)
  --------------------------------------------------------
      1 O                    -0.255627       0.709094
      2 O                    -0.171133       0.298136
      3 H                     0.426761      -0.007231
  --------------------------------------------------------
  Sum of atomic charges =     0.000000

                    Cartesian Multipole Moments
 -----------------------------------------------------------------
    Charge (ESU x 10^10)
                -0.0000
    Dipole Moment (Debye)
         X      -2.2447      Y      -1.9264      Z       0.0000
       Tot       2.9580
    Quadrupole Moments (Debye-Ang)
        XX     -10.6733     XY       2.0290     YY     -10.4185
        XZ      -0.0000     YZ      -0.0000     ZZ     -11.2211

 Total job time:  12.01s(wall), 44.85s(cpu)
        *  Thank you very much for using Q-Chem.  Have a nice day.  *
