 Q-Chem 5.4, Q-Chem, Inc., Pleasanton, CA (2021)
 Q-Chem 5.4.1 for Intel X86 EM64T Linux

User input:
--------------------------------------------------------------
$molecule
-1 1
O        -0.7700752962    1.0095248173   -0.0901959350
C        -0.3608196099   -0.2115914739    0.4922317158
O        -1.0496930004   -1.3042071768   -0.0673185286
C         1.1546408297   -0.3521732406    0.2396058149
O         1.8571576590    0.5647537115    0.7328913092
O         1.5662840877   -1.3426908188   -0.4048193267
H        -1.6025330528    1.2738191661    0.3164522571
H        -1.9354580049   -1.3186989432    0.3121775248
H        -0.5354792121   -0.1788818416    1.5697029686
$end

$rem
BASIS = 6-311++G**
JOB_TYPE = SP
METHOD = wB97M-V
SCF_ALGORITHM = DIIS_GDM
MAX_SCF_CYCLES = 400
SCF_CONVERGENCE = 7
THRESH = 12
Solvent_method = SMD
$end
--------------------------------------------------------------

             Standard Nuclear Orientation (Angstroms)
    I     Atom           X                Y                Z
 ----------------------------------------------------------------
    1      O      -0.7700752962     1.0095248173    -0.0901959350
    2      C      -0.3608196099    -0.2115914739     0.4922317158
    3      O      -1.0496930004    -1.3042071768    -0.0673185286
    4      C       1.1546408297    -0.3521732406     0.2396058149
    5      O       1.8571576590     0.5647537115     0.7328913092
    6      O       1.5662840877    -1.3426908188    -0.4048193267
    7      H      -1.6025330528     1.2738191661     0.3164522571
    8      H      -1.9354580049    -1.3186989432     0.3121775248
    9      H      -0.5354792121    -0.1788818416     1.5697029686
 ----------------------------------------------------------------

   14    -379.1101099808      6.09e-08  Convergence criterion met
 Total energy in the final basis set =     -379.1034346056

                    Orbital Energies (a.u.)
 --------------------------------------------------------------

 Alpha MOs
 -- Occupied --
-19.3421 -19.3409 -19.2880 -19.2855 -10.4435 -10.4406  -1.2038  -1.1660
 -1.1333  -1.0814  -0.8160  -0.6486  -0.6408  -0.6356  -0.5781  -0.5313
 -0.5116  -0.4990  -0.4901  -0.4145  -0.4097  -0.3713  -0.3618  -0.3583

          Ground-State Mulliken Net Atomic Charges

     Atom                 Charge (a.u.)
  ----------------------------------------
      1 O                    -0.383188
      2 C                    -0.227506
      3 O                    -0.389959
      4 C                     0.278593
      5 O                    -0.602103
      6 O                    -0.591509
      7 H                     0.334563
      8 H                     0.327102
      9 H                     0.254007
  ----------------------------------------
  Sum of atomic charges =    -1.000000

                    Cartesian Multipole Moments
 -----------------------------------------------------------------
    Charge (ESU x 10^10)
                -4.8032
    Dipole Moment (Debye)
         X     -12.2756      Y       2.2845      Z       2.8067
       Tot      12.7979
    Quadrupole Moments (Debye-Ang)
        XX     -47.4635     XY       1.7250     YY     -47.9611
        XZ      -6.2012     YZ      -4.7364     ZZ     -38.1030

 Total job time:  32.37s(wall), 125.17s(cpu)
        *  Thank you very much for using Q-Chem.  Have a nice day.  *
