 Q-Chem 5.4, Q-Chem, Inc., Pleasanton, CA (2021)
 Q-Chem 5.4.1 for Intel X86 EM64T Linux

User input:
--------------------------------------------------------------
$molecule
-1 1
O        -0.7700752962    1.0095248173   -0.0901959350
C        -0.3608196099   -0.2115914739    0.4922317158
O        -1.0496930004   -1.3042071768   -0.0673185286
C         1.1546408297   -0.3521732406    0.2396058149
O         1.8571576590    0.5647537115    0.7328913092
O         1.5662840877   -1.3426908188   -0.4048193267
H        -1.6025330528    1.2738191661    0.3164522571
H        -1.9354580049   -1.3186989432    0.3121775248
H        -0.5354792121   -0.1788818416    1.5697029686
$end

$rem
BASIS = 6-31G(d)
JOB_TYPE = SP
METHOD = wB97M-V
SCF_ALGORITHM = DIIS_GDM
MAX_SCF_CYCLES = 400
SCF_CONVERGENCE = 7
THRESH = 12
Solvent_method = SMD
$end
--------------------------------------------------------------

             Standard Nuclear Orientation (Angstroms)
    I     Atom           X                Y                Z
 ----------------------------------------------------------------
    1      O      -0.7700752962     1.0095248173    -0.0901959350
    2      C      -0.3608196099    -0.2115914739     0.4922317158
    3      O      -1.0496930004    -1.3042071768    -0.0673185286
    4      C       1.1546408297    -0.3521732406     0.2396058149
    5      O       1.8571576590     0.5647537115     0.7328913092
    6      O       1.5662840877    -1.3426908188    -0.4048193267
    7      H      -1.6025330528     1.2738191661     0.3164522571
    8      H      -1.9354580049    -1.3186989432     0.3121775248
    9      H      -0.5354792121    -0.1788818416     1.5697029686
 ----------------------------------------------------------------

   12    -378.9476672552      6.01e-08  Convergence criterion met
 Total energy in the final basis set =     -378.9409918801

                    Orbital Energies (a.u.)
 --------------------------------------------------------------

 Alpha MOs
 -- Occupied --
-19.3443 -19.3433 -19.2792 -19.2762 -10.4312 -10.4283  -1.1807  -1.1345
 -1.1123  -1.0480  -0.7945  -0.6297  -0.6204  -0.6103  -0.5483  -0.4989
 -0.4832  -0.4768  -0.4666  -0.3916  -0.3858  -0.3383  -0.3302  -0.3259

          Ground-State Mulliken Net Atomic Charges

     Atom                 Charge (a.u.)
  ----------------------------------------
      1 O                    -0.691285
      2 C                     0.229940
      3 O                    -0.687178
      4 C                     0.497654
      5 O                    -0.701811
      6 O                    -0.689473
      7 H                     0.445876
      8 H                     0.444040
      9 H                     0.152237
  ----------------------------------------
  Sum of atomic charges =    -1.000000

                    Cartesian Multipole Moments
 -----------------------------------------------------------------
    Charge (ESU x 10^10)
                -4.8032
    Dipole Moment (Debye)
         X     -11.5024      Y       2.2382      Z       2.2725
       Tot      11.9365
    Quadrupole Moments (Debye-Ang)
        XX     -44.0617     XY       1.6976     YY     -44.4829
        XZ      -5.5577     YZ      -4.1245     ZZ     -35.9536

 Total job time:  20.63s(wall), 77.80s(cpu)
        *  Thank you very much for using Q-Chem.  Have a nice day.  *
