 Q-Chem 5.4, Q-Chem, Inc., Pleasanton, CA (2021)
 Q-Chem 5.4.1 for Intel X86 EM64T Linux

User input:
--------------------------------------------------------------
$molecule
0 2
C        -0.9113678250   -0.6701761786    0.2627741729
O        -0.9016773764   -1.5214926167    1.2489500934
O        -1.3947881906   -0.7447911985   -0.8246636166
O        -0.2255046815    0.5250427946    0.5704555581
O         0.2826249926    0.5784694341    1.7747773958
H        -1.3874282190   -2.3190267349    0.9808714962
$end

$rem
BASIS = 6-311++G(2df,2p)
GUI = 2
JOB_TYPE = Frequency
METHOD = wB97M-V
SOLVENT_METHOD = SMD
SCF_ALGORITHM = DIIS_GDM
MAX_SCF_CYCLES = 400
SCF_CONVERGENCE = 7
THRESH = 12
$end

--------------------------------------------------------------

   21    -339.5246383100      6.25e-08  Convergence criterion met
 Total energy in the final basis set =     -339.5188783765
   19    -339.5246371257      9.54e-08  Convergence criterion met
 Total energy in the final basis set =     -339.5188774840
   19    -339.5246382664      8.42e-08  Convergence criterion met
 Total energy in the final basis set =     -339.5188779535
   20    -339.5246357627      3.04e-08  Convergence criterion met
 Total energy in the final basis set =     -339.5188772939
   20    -339.5246391706      3.04e-08  Convergence criterion met
 Total energy in the final basis set =     -339.5188775077
   20    -339.5246376348      2.75e-08  Convergence criterion met
 Total energy in the final basis set =     -339.5188767526
   20    -339.5246356047      3.02e-08  Convergence criterion met
 Total energy in the final basis set =     -339.5188766501
   20    -339.5246381325      3.33e-08  Convergence criterion met
 Total energy in the final basis set =     -339.5188776875
   19    -339.5246378771      9.17e-08  Convergence criterion met
 Total energy in the final basis set =     -339.5188781632
   19    -339.5246382694      9.07e-08  Convergence criterion met
 Total energy in the final basis set =     -339.5188781161
   17    -339.5246369276      9.20e-08  Convergence criterion met
 Total energy in the final basis set =     -339.5188777265
   18    -339.5246384192      9.62e-08  Convergence criterion met
 Total energy in the final basis set =     -339.5188777531
   16    -339.5246385222      8.83e-08  Convergence criterion met
 Total energy in the final basis set =     -339.5188782906
   18    -339.5246378350      8.39e-08  Convergence criterion met
 Total energy in the final basis set =     -339.5188781993
 Frequency:       119.70                 363.95                 526.48
 Force Cnst:      0.1265                 0.8331                 0.1847
 Red. Mass:      14.9842                10.6751                 1.1312
 IR Intens:        0.095                  9.111                188.755
 Frequency:       565.19                 647.49                 743.22
 Force Cnst:      1.4948                 1.5396                 4.0633
 Red. Mass:       7.9424                 6.2329                12.4852
 IR Intens:       39.157                 70.367                 68.136
 Frequency:       972.94                1178.00                1242.95
 Force Cnst:      4.4724                 1.7640                12.3318
 Red. Mass:       8.0190                 2.1575                13.5477
 IR Intens:       49.932                369.493                109.427
 Frequency:      1420.60                1826.73                3734.81
 Force Cnst:      3.2915                25.3237                 8.7572
 Red. Mass:       2.7682                12.8804                 1.0656
 IR Intens:      348.336               1122.210                331.233

 STANDARD THERMODYNAMIC QUANTITIES AT   298.15 K  AND     1.00 ATM

   This Molecule has  0 Imaginary Frequencies
   Zero point vibrational energy:       19.073 kcal/mol

   Atom    1 Element C  Has Mass   12.00000
   Atom    2 Element O  Has Mass   15.99491
   Atom    3 Element O  Has Mass   15.99491
   Atom    4 Element O  Has Mass   15.99491
   Atom    5 Element O  Has Mass   15.99491
   Atom    6 Element H  Has Mass    1.00783
   Molecular Mass:    76.987470 amu
   Principal axes and moments of inertia in amu*Bohr^2:
                             1           2           3
    Eigenvalues --      159.05244   363.39609   522.44344
          X               0.52313     0.05848     0.85024
          Y               0.56039     0.72804    -0.39487
          Z               0.64210    -0.68304    -0.34809
   Rotational Symmetry Number is   1
   The Molecule is an Asymmetric Top
   Translational Enthalpy:        0.889 kcal/mol
   Rotational Enthalpy:           0.889 kcal/mol
   Vibrational Enthalpy:         20.167 kcal/mol
   gas constant (RT):             0.592 kcal/mol
   Translational Entropy:        38.938  cal/mol.K
   Rotational Entropy:           24.916  cal/mol.K
   Vibrational Entropy:           6.156  cal/mol.K

   Total Enthalpy:               22.537 kcal/mol
   Total Entropy:                70.010  cal/mol.K
 Total job time:  1156.44s(wall), 8941.20s(cpu)
        *  Thank you very much for using Q-Chem.  Have a nice day.  *
 Q-Chem 5.4, Q-Chem, Inc., Pleasanton, CA (2021)
 Q-Chem 5.4.1 for Intel X86 EM64T Linux

User input:
--------------------------------------------------------------

$molecule
read
$end

$rem
JOBTYPE            rpath
SCF_GUESS          read
RPATH_MAX_CYCLES   30
BASIS = 6-311++G(2df,2p)
METHOD = wB97M-V
SOLVENT_METHOD = SMD
SCF_ALGORITHM = DIIS_GDM
SCF_CONVERGENCE = 7
THRESH = 12
$end
--------------------------------------------------------------

             Standard Nuclear Orientation (Angstroms)
    I     Atom           X                Y                Z
 ----------------------------------------------------------------
    1      C      -0.9113678250    -0.6701761786     0.2627741729
    2      O      -0.9016773764    -1.5214926167     1.2489500934
    3      O      -1.3947881906    -0.7447911985    -0.8246636166
    4      O      -0.2255046815     0.5250427946     0.5704555581
    5      O       0.2826249926     0.5784694341     1.7747773958
    6      H      -1.3874282190    -2.3190267349     0.9808714962
 ----------------------------------------------------------------

   16    -339.5246383098      4.27e-08  Convergence criterion met
 Total energy in the final basis set =     -339.5188783763

                    Orbital Energies (a.u.)
 --------------------------------------------------------------

 Alpha MOs
 -- Occupied --
-19.4902 -19.4488 -19.4151 -19.3623 -10.5591  -1.3825  -1.2779  -1.2059
 -1.0399  -0.7955  -0.7077  -0.6712  -0.6526  -0.6060  -0.5813  -0.5615
 -0.4739  -0.4697  -0.4272  -0.4223

 Beta MOs
 -- Occupied --
-19.4830 -19.4279 -19.4152 -19.3612 -10.5595  -1.3618  -1.2725  -1.2044
 -1.0038  -0.7896  -0.6935  -0.6491  -0.6386  -0.5936  -0.5593  -0.5329
 -0.4645  -0.4616  -0.4058

          Ground-State Mulliken Net Atomic Charges

     Atom                 Charge (a.u.)    Spin (a.u.)
  --------------------------------------------------------
      1 C                     0.543495      -0.008541
      2 O                    -0.311577      -0.001970
      3 O                    -0.450471       0.040075
      4 O                    -0.084696       0.212459
      5 O                    -0.075781       0.758363
      6 H                     0.379031      -0.000386
  --------------------------------------------------------
  Sum of atomic charges =    -0.000000

                    Cartesian Multipole Moments
 -----------------------------------------------------------------
    Charge (ESU x 10^10)
                -0.0000
    Dipole Moment (Debye)
         X      -0.9693      Y      -3.1146      Z       1.1708
       Tot       3.4657
    Quadrupole Moments (Debye-Ang)
        XX     -25.7830     XY       3.5134     YY     -20.0036
        XZ      -5.0976     YZ      -3.6714     ZZ     -32.2582
