 Q-Chem 5.4, Q-Chem, Inc., Pleasanton, CA (2021)
 Q-Chem 5.4.1 for Intel X86 EM64T Linux

User input:
--------------------------------------------------------------
$molecule
0 2
C        -0.9105679652   -0.6672692599    0.2620761941
O        -0.8980789629   -1.5197944576    1.2578935175
O        -1.3993944696   -0.7516554643   -0.8290264507
O        -0.2253086053    0.5298486989    0.5666470262
O         0.2837749799    0.5742900992    1.7807040475
H        -1.3885662769   -2.3173941163    0.9748707652
$end

$rem
BASIS = 6-311++G(2df,2p)
GUI = 2
JOB_TYPE = Optimization
METHOD = wB97M-V
SCF_ALGORITHM = DIIS_GDM
MAX_SCF_CYCLES = 400
GEOM_OPT_MAX_CYCLES = 150
SCF_CONVERGENCE = 7
THRESH = 12
UNRESTRICTED = 1
Solvent_method = SMD
$end
--------------------------------------------------------------

   21    -339.5243226555      7.48e-08  Convergence criterion met
 Total energy in the final basis set =     -339.5186200788
   19    -339.5246046908      9.39e-08  Convergence criterion met
 Total energy in the final basis set =     -339.5188571513
   19    -339.5246302964      8.19e-08  Convergence criterion met
 Total energy in the final basis set =     -339.5188695375
   19    -339.5246245051      7.32e-08  Convergence criterion met
 Total energy in the final basis set =     -339.5188581995
   19    -339.5246373724      7.49e-08  Convergence criterion met
 Total energy in the final basis set =     -339.5188776770

             Standard Nuclear Orientation (Angstroms)
    I     Atom           X                Y                Z
 ----------------------------------------------------------------
    1      C      -0.9113678250    -0.6701761786     0.2627741729
    2      O      -0.9016773764    -1.5214926167     1.2489500934
    3      O      -1.3947881906    -0.7447911985    -0.8246636166
    4      O      -0.2255046815     0.5250427946     0.5704555581
    5      O       0.2826249926     0.5784694341     1.7747773958
    6      H      -1.3874282190    -2.3190267349     0.9808714962
 ----------------------------------------------------------------

   20    -339.5246383098      3.56e-08  Convergence criterion met
 Total energy in the final basis set =     -339.5188783763
 Final energy is   -339.518878376311
 **  OPTIMIZATION CONVERGED  **

                    Orbital Energies (a.u.)
 --------------------------------------------------------------

 Alpha MOs
 -- Occupied --
-19.4902 -19.4488 -19.4151 -19.3623 -10.5591  -1.3825  -1.2779  -1.2059
 -1.0399  -0.7955  -0.7077  -0.6712  -0.6526  -0.6060  -0.5813  -0.5615
 -0.4739  -0.4697  -0.4272  -0.4223

 Beta MOs
 -- Occupied --
-19.4830 -19.4279 -19.4152 -19.3612 -10.5595  -1.3618  -1.2725  -1.2044
 -1.0038  -0.7896  -0.6935  -0.6491  -0.6386  -0.5936  -0.5593  -0.5329
 -0.4645  -0.4616  -0.4058

          Ground-State Mulliken Net Atomic Charges

     Atom                 Charge (a.u.)    Spin (a.u.)
  --------------------------------------------------------
      1 C                     0.543495      -0.008541
      2 O                    -0.311577      -0.001970
      3 O                    -0.450471       0.040075
      4 O                    -0.084696       0.212459
      5 O                    -0.075781       0.758363
      6 H                     0.379031      -0.000386
  --------------------------------------------------------
  Sum of atomic charges =     0.000000

                    Cartesian Multipole Moments
 -----------------------------------------------------------------
    Charge (ESU x 10^10)
                 0.0000
    Dipole Moment (Debye)
         X      -0.9693      Y      -3.1146      Z       1.1708
       Tot       3.4657
    Quadrupole Moments (Debye-Ang)
        XX     -25.7830     XY       3.5134     YY     -20.0036
        XZ      -5.0976     YZ      -3.6714     ZZ     -32.2582

 Total job time:  190.65s(wall), 1467.37s(cpu)
        *  Thank you very much for using Q-Chem.  Have a nice day.  *
