 Q-Chem 5.4, Q-Chem, Inc., Pleasanton, CA (2021)
 Q-Chem 5.4.1 for Intel X86 EM64T Linux

User input:
--------------------------------------------------------------
$molecule
0 1
O        -0.6678554955    1.1020238419    0.2612852811
C        -0.3656352537   -0.2442880346    0.5330946241
O        -1.0087321239   -1.1308296264   -0.3381898993
C         1.1413976584   -0.4349469172    0.3500214906
O         1.8712152688    0.6730078684    0.4158507821
O         1.6501434675   -1.5191886229    0.2019956850
H        -1.3958858049    1.3819609322    0.8267715306
H        -1.8915177107   -1.3065397044    0.0066128236
H         1.2716528173    1.4364649447    0.4903475041
H        -0.6024757234   -0.4811881816    1.5723379780
$end

$rem
BASIS = 6-311++G(2df,2p)
GUI = 2
JOB_TYPE = Frequency
METHOD = wB97M-V
SOLVENT_METHOD = SMD
SCF_ALGORITHM = DIIS_GDM
MAX_SCF_CYCLES = 400
SCF_CONVERGENCE = 7
THRESH = 12
SYMMETRY_IGNORE = 1
$end
--------------------------------------------------------------

   14    -379.5793730451      9.03e-08  Convergence criterion met
 Total energy in the final basis set =     -379.5724500816
   15    -379.5793732989      5.53e-08  Convergence criterion met
 Total energy in the final basis set =     -379.5724493980
   15    -379.5793713648      5.49e-08  Convergence criterion met
 Total energy in the final basis set =     -379.5724493245
   15    -379.5793679353      5.51e-08  Convergence criterion met
 Total energy in the final basis set =     -379.5724492664
   15    -379.5793768546      5.53e-08  Convergence criterion met
 Total energy in the final basis set =     -379.5724492536
   15    -379.5793731304      5.50e-08  Convergence criterion met
 Total energy in the final basis set =     -379.5724495872
   15    -379.5793719743      5.52e-08  Convergence criterion met
 Total energy in the final basis set =     -379.5724495797
   15    -379.5793671305      5.47e-08  Convergence criterion met
 Total energy in the final basis set =     -379.5724500461
   15    -379.5793729599      5.53e-08  Convergence criterion met
 Total energy in the final basis set =     -379.5724500546
   15    -379.5793727522      5.49e-08  Convergence criterion met
 Total energy in the final basis set =     -379.5724499463
   15    -379.5793730831      5.53e-08  Convergence criterion met
 Total energy in the final basis set =     -379.5724499604
   15    -379.5793729366      5.50e-08  Convergence criterion met
 Total energy in the final basis set =     -379.5724499466
   15    -379.5793728790      5.50e-08  Convergence criterion met
 Total energy in the final basis set =     -379.5724499407
   15    -379.5793726774      5.49e-08  Convergence criterion met
 Total energy in the final basis set =     -379.5724495783
   15    -379.5793723141      5.56e-08  Convergence criterion met
 Total energy in the final basis set =     -379.5724494831

                    Orbital Energies (a.u.)
 --------------------------------------------------------------

 Alpha MOs
 -- Occupied --
-19.3890 -19.3603 -19.3554 -19.3389 -10.4942 -10.4667  -1.2587  -1.2087
 -1.1738  -1.1463  -0.8503  -0.7394  -0.6755  -0.6613  -0.6596  -0.5856
 -0.5645  -0.5299  -0.5178  -0.4929  -0.4461  -0.4325  -0.4278  -0.3998

          Ground-State Mulliken Net Atomic Charges

     Atom                 Charge (a.u.)
  ----------------------------------------
      1 O                    -0.445809
      2 C                     0.087132
      3 O                    -0.431438
      4 C                     0.286559
      5 O                    -0.309346
      6 O                    -0.470875
      7 H                     0.359045
      8 H                     0.347098
      9 H                     0.334073
     10 H                     0.243563
  ----------------------------------------
  Sum of atomic charges =     0.000000

                    Cartesian Multipole Moments
 -----------------------------------------------------------------
    Charge (ESU x 10^10)
                 0.0000
    Dipole Moment (Debye)
         X      -6.3270      Y       4.1586      Z       4.1807
       Tot       8.6489
    Quadrupole Moments (Debye-Ang)
        XX     -36.2300     XY       6.3892     YY     -38.2365
        XZ      -4.9596     YZ       1.0261     ZZ     -32.1248

             Standard Nuclear Orientation (Angstroms)
    I     Atom           X                Y                Z
 ----------------------------------------------------------------
    1      O      -0.6678554955     1.1020238419     0.2612852811
    2      C      -0.3656352537    -0.2442880346     0.5330946241
    3      O      -1.0087321239    -1.1308296264    -0.3381898993
    4      C       1.1413976584    -0.4349469172     0.3500214906
    5      O       1.8712152688     0.6730078684     0.4158507821
    6      O       1.6501434675    -1.5191886229     0.2019956850
    7      H      -1.3958858049     1.3819609322     0.8267715306
    8      H      -1.8915177107    -1.3065397044     0.0066128236
    9      H       1.2716528173     1.4364649447     0.4903475041
   10      H      -0.6024757234    -0.4811881816     1.5723379780
 ----------------------------------------------------------------

 Frequency:        53.96                 255.62                 281.91
 Force Cnst:      0.0115                 0.0464                 0.1570
 Red. Mass:       6.7297                 1.2050                 3.3525
 IR Intens:        6.433                128.877                 13.252
 Frequency:       302.73                 367.89                 505.80
 Force Cnst:      0.0796                 0.2457                 1.2010
 Red. Mass:       1.4751                 3.0808                 7.9674
 IR Intens:      213.674                 31.447                 48.478
 Frequency:       547.25                 589.32                 642.47
 Force Cnst:      0.8742                 1.0680                 0.2787
 Red. Mass:       4.9545                 5.2196                 1.1460
 IR Intens:       38.754                 26.626                194.147
 Frequency:       775.60                 879.20                1160.25
 Force Cnst:      2.7772                 1.9029                 1.9795
 Red. Mass:       7.8358                 4.1782                 2.4957
 IR Intens:       21.098                 54.729                211.174
 Frequency:      1216.22                1234.87                1250.29
 Force Cnst:      1.2146                 1.3535                 1.4756
 Red. Mass:       1.3936                 1.5065                 1.6021
 IR Intens:       91.900                130.368                187.515
 Frequency:      1259.70                1326.02                1407.02
 Force Cnst:      3.3626                 1.7977                 1.6113
 Red. Mass:       3.5966                 1.7352                 1.3814
 IR Intens:      439.810                510.033                 11.696
 Frequency:      1474.74                1795.40                3083.29
 Force Cnst:      2.4076                17.4321                 6.0793
 Red. Mass:       1.8789                 9.1786                 1.0854
 IR Intens:       88.706                616.464                 19.575
 Frequency:      3668.11                3824.49                3832.85
 Force Cnst:      8.4435                 9.1947                 9.2381
 Red. Mass:       1.0651                 1.0669                 1.0673
 IR Intens:      376.262                148.688                203.266

 STANDARD THERMODYNAMIC QUANTITIES AT   298.15 K  AND     1.00 ATM

   This Molecule has  0 Imaginary Frequencies
   Zero point vibrational energy:       45.367 kcal/mol

   Atom    1 Element O  Has Mass   15.99491
   Atom    2 Element C  Has Mass   12.00000
   Atom    3 Element O  Has Mass   15.99491
   Atom    4 Element C  Has Mass   12.00000
   Atom    5 Element O  Has Mass   15.99491
   Atom    6 Element O  Has Mass   15.99491
   Atom    7 Element H  Has Mass    1.00783
   Atom    8 Element H  Has Mass    1.00783
   Atom    9 Element H  Has Mass    1.00783
   Atom   10 Element H  Has Mass    1.00783
   Molecular Mass:    92.010960 amu
   Principal axes and moments of inertia in amu*Bohr^2:
                             1           2           3
    Eigenvalues --      340.57446   504.73011   804.46143
          X               0.98779     0.11341    -0.10680
          Y              -0.13010     0.97765    -0.16513
          Z               0.08569     0.17701     0.98047
   Rotational Symmetry Number is   1
   The Molecule is an Asymmetric Top
   Translational Enthalpy:        0.889 kcal/mol
   Rotational Enthalpy:           0.889 kcal/mol
   Vibrational Enthalpy:         47.543 kcal/mol
   gas constant (RT):             0.592 kcal/mol
   Translational Entropy:        39.470  cal/mol.K
   Rotational Entropy:           26.428  cal/mol.K
   Vibrational Entropy:          13.042  cal/mol.K

   Total Enthalpy:               49.913 kcal/mol
   Total Entropy:                78.939  cal/mol.K
 Total job time:  3539.68s(wall), 27287.08s(cpu)
        *  Thank you very much for using Q-Chem.  Have a nice day.  *
