 Q-Chem 5.4, Q-Chem, Inc., Pleasanton, CA (2021)
 Q-Chem 5.4.1 for Intel X86 EM64T Linux

User input:
--------------------------------------------------------------
$molecule
0 1
O        -0.6599645518    1.0935719588    0.2431306826
C        -0.3631226803   -0.2540927381    0.5366841301
O        -0.9944676261   -1.1593388388   -0.3256978506
C         1.1460713791   -0.4393598435    0.3491056491
O         1.8618684656    0.6842083847    0.4214839562
O         1.6655414994   -1.5233635718    0.1916040567
H        -1.3680126973    1.3881943128    0.8382936244
H        -1.9068000674   -1.2679167367   -0.0098123629
H         1.2235705382    1.4277614640    0.4911508944
H        -0.6023771595   -0.4731878913    1.5841850199
$end

$rem
BASIS = 6-311++G(2df,2p)
GUI = 2
JOB_TYPE = Optimization
METHOD = wB97M-V
SCF_ALGORITHM = DIIS_GDM
MAX_SCF_CYCLES = 400
GEOM_OPT_MAX_CYCLES = 150
SCF_CONVERGENCE = 7
THRESH = 12
Solvent_method = SMD
$end
--------------------------------------------------------------

   14    -379.5788289141      7.58e-08  Convergence criterion met
 Total energy in the final basis set =     -379.5719981242
   15    -379.5793049483      4.84e-08  Convergence criterion met
 Total energy in the final basis set =     -379.5723936549
   15    -379.5793465502      5.59e-08  Convergence criterion met
 Total energy in the final basis set =     -379.5724246164
   15    -379.5793558599      5.59e-08  Convergence criterion met
 Total energy in the final basis set =     -379.5724353289
   14    -379.5793427499      8.82e-08  Convergence criterion met
 Total energy in the final basis set =     -379.5724246376
   14    -379.5793661858      9.32e-08  Convergence criterion met
 Total energy in the final basis set =     -379.5724450370
   15    -379.5793701868      5.53e-08  Convergence criterion met
 Total energy in the final basis set =     -379.5724478453
   15    -379.5793729486      5.34e-08  Convergence criterion met
 Total energy in the final basis set =     -379.5724498363

             Standard Nuclear Orientation (Angstroms)
    I     Atom           X                Y                Z
 ----------------------------------------------------------------
    1      O      -0.6678554955     1.1020238419     0.2612852811
    2      C      -0.3656352537    -0.2442880346     0.5330946241
    3      O      -1.0087321239    -1.1308296264    -0.3381898993
    4      C       1.1413976584    -0.4349469172     0.3500214906
    5      O       1.8712152688     0.6730078684     0.4158507821
    6      O       1.6501434675    -1.5191886229     0.2019956850
    7      H      -1.3958858049     1.3819609322     0.8267715306
    8      H      -1.8915177107    -1.3065397044     0.0066128236
    9      H       1.2716528173     1.4364649447     0.4903475041
   10      H      -0.6024757234    -0.4811881816     1.5723379780
 ----------------------------------------------------------------

   15    -379.5793730452      5.34e-08  Convergence criterion met
 Total energy in the final basis set =     -379.5724500816
 Final energy is   -379.572450081631
 **  OPTIMIZATION CONVERGED  **

                    Orbital Energies (a.u.)
 --------------------------------------------------------------

 Alpha MOs
 -- Occupied --
-19.3890 -19.3603 -19.3554 -19.3389 -10.4942 -10.4668  -1.2587  -1.2087
 -1.1738  -1.1463  -0.8502  -0.7394  -0.6754  -0.6612  -0.6596  -0.5856
 -0.5645  -0.5299  -0.5178  -0.4929  -0.4460  -0.4325  -0.4278  -0.3998

          Ground-State Mulliken Net Atomic Charges

     Atom                 Charge (a.u.)
  ----------------------------------------
      1 O                    -0.445768
      2 C                     0.087118
      3 O                    -0.431382
      4 C                     0.286587
      5 O                    -0.309340
      6 O                    -0.470878
      7 H                     0.359064
      8 H                     0.347109
      9 H                     0.334071
     10 H                     0.243421
  ----------------------------------------
  Sum of atomic charges =     0.000000

                    Cartesian Multipole Moments
 -----------------------------------------------------------------
    Charge (ESU x 10^10)
                 0.0000
    Dipole Moment (Debye)
         X      -6.3273      Y       4.1588      Z       4.1804
       Tot       8.6491
    Quadrupole Moments (Debye-Ang)
        XX     -36.2307     XY       6.3894     YY     -38.2370
        XZ      -4.9594     YZ       1.0265     ZZ     -32.1244

 Total job time:  584.20s(wall), 4212.00s(cpu)
        *  Thank you very much for using Q-Chem.  Have a nice day.  *
