 Q-Chem 5.4, Q-Chem, Inc., Pleasanton, CA (2021)
 Q-Chem 5.4.1 for Intel X86 EM64T Linux

User input:
--------------------------------------------------------------
$molecule
0 2
C         0.5259361465    0.2043921395    0.4740676009
O         1.2874533448   -0.5711169147    0.9869908096
H        -2.5875831013    0.7760436896   -0.2342908893
C        -0.9933530291   -0.0778802264    0.4538855820
O        -1.1924198531   -1.3245821325   -0.0584423260
O        -1.6382660789    0.9534424243   -0.1592693111
O         0.9252740252    1.3236119123   -0.1025326688
H         0.1686586019    1.8175050908   -0.4603742573
O        -1.4339563021   -0.1633635542    1.8680049276
O        -1.1076507085    0.9154251556    2.5200574009
H        -2.1404694451   -1.4927940843   -0.1674083686
$end

$rem
BASIS = 6-311++G(2df,2p)
GUI = 2
JOB_TYPE = Frequency
METHOD = wB97M-V
SOLVENT_METHOD = SMD
SCF_ALGORITHM = DIIS_GDM
MAX_SCF_CYCLES = 400
SCF_CONVERGENCE = 7
THRESH = 12
UNRESTRICTED = 1
SYMMETRY_IGNORE = 1
$end
--------------------------------------------------------------

   21    -529.3176115614      9.53e-08  Convergence criterion met
 Total energy in the final basis set =     -529.3109023547
   19    -529.3176153567      8.57e-08  Convergence criterion met
 Total energy in the final basis set =     -529.3109009906
   19    -529.3176050922      9.12e-08  Convergence criterion met
 Total energy in the final basis set =     -529.3109010642
   19    -529.3176141528      8.86e-08  Convergence criterion met
 Total energy in the final basis set =     -529.3109010904
   19    -529.3176065584      8.27e-08  Convergence criterion met
 Total energy in the final basis set =     -529.3109012698
   19    -529.3176088902      9.02e-08  Convergence criterion met
 Total energy in the final basis set =     -529.3109016450
   19    -529.3176128532      8.70e-08  Convergence criterion met
 Total energy in the final basis set =     -529.3109017070
   19    -529.3176092637      8.78e-08  Convergence criterion met
 Total energy in the final basis set =     -529.3109020732
   19    -529.3176110660      8.25e-08  Convergence criterion met
 Total energy in the final basis set =     -529.3109019881
   19    -529.3176102824      8.96e-08  Convergence criterion met
 Total energy in the final basis set =     -529.3109015404
   19    -529.3176111118      8.81e-08  Convergence criterion met
 Total energy in the final basis set =     -529.3109014404
   19    -529.3176107614      8.73e-08  Convergence criterion met
 Total energy in the final basis set =     -529.3109022461
   19    -529.3176121286      8.80e-08  Convergence criterion met
 Total energy in the final basis set =     -529.3109022302
   19    -529.3176113506      8.72e-08  Convergence criterion met
 Total energy in the final basis set =     -529.3109023563
   19    -529.3176117128      8.82e-08  Convergence criterion met
 Total energy in the final basis set =     -529.3109022931

                    Orbital Energies (a.u.)
 --------------------------------------------------------------

 Alpha MOs
 -- Occupied --
-19.4730 -19.4328 -19.4009 -19.3853 -19.3815 -19.3506 -10.5454 -10.5109
 -1.3654  -1.2741  -1.2452  -1.1934  -1.1747  -1.0123  -0.8613  -0.7559
 -0.7187  -0.7107  -0.6902  -0.6260  -0.6164  -0.5996  -0.5771  -0.5742
 -0.5331  -0.5082  -0.4964  -0.4549  -0.4508  -0.4288  -0.4141  -0.4055

 Beta MOs
 -- Occupied --
-19.4634 -19.4133 -19.4008 -19.3851 -19.3815 -19.3506 -10.5458 -10.5108
 -1.3423  -1.2717  -1.2430  -1.1933  -1.1746  -0.9777  -0.8563  -0.7554
 -0.7166  -0.6977  -0.6845  -0.6027  -0.5989  -0.5836  -0.5742  -0.5514
 -0.5306  -0.4980  -0.4893  -0.4529  -0.4498  -0.4222  -0.3928

          Ground-State Mulliken Net Atomic Charges

     Atom                 Charge (a.u.)    Spin (a.u.)
  --------------------------------------------------------
      1 C                     0.288556       0.012871
      2 O                    -0.439545      -0.002339
      3 H                     0.368490       0.000264
      4 C                     0.344604      -0.004368
      5 O                    -0.380304      -0.000005
      6 O                    -0.400560       0.001816
      7 O                    -0.269770       0.000758
      8 H                     0.342110      -0.000073
      9 O                    -0.011547       0.290185
     10 O                    -0.193402       0.701184
     11 H                     0.351366      -0.000293
  --------------------------------------------------------
  Sum of atomic charges =     0.000000

                    Cartesian Multipole Moments
 -----------------------------------------------------------------
    Charge (ESU x 10^10)
                 0.0000
    Dipole Moment (Debye)
         X      -7.4056      Y       1.4156      Z      -4.6188
       Tot       8.8420
    Quadrupole Moments (Debye-Ang)
        XX     -34.6214     XY       3.2252     YY     -44.8780
        XZ       2.0440     YZ      -1.2871     ZZ     -54.0482

             Standard Nuclear Orientation (Angstroms)
    I     Atom           X                Y                Z
 ----------------------------------------------------------------
    1      C       0.5259361465     0.2043921395     0.4740676009
    2      O       1.2874533448    -0.5711169147     0.9869908096
    3      H      -2.5875831013     0.7760436896    -0.2342908893
    4      C      -0.9933530291    -0.0778802264     0.4538855820
    5      O      -1.1924198531    -1.3245821325    -0.0584423260
    6      O      -1.6382660789     0.9534424243    -0.1592693111
    7      O       0.9252740252     1.3236119123    -0.1025326688
    8      H       0.1686586019     1.8175050908    -0.4603742573
    9      O      -1.4339563021    -0.1633635542     1.8680049276
   10      O      -1.1076507085     0.9154251556     2.5200574009
   11      H      -2.1404694451    -1.4927940843    -0.1674083686
 ----------------------------------------------------------------

 Frequency:        50.34                  84.43                 214.28
 Force Cnst:      0.0132                 0.0559                 0.3802
 Red. Mass:       8.8484                13.3107                14.0556
 IR Intens:       15.899                  3.038                  7.700
 Frequency:       238.75                 274.58                 317.05
 Force Cnst:      0.0387                 0.1935                 0.2871
 Red. Mass:       1.1534                 4.3554                 4.8480
 IR Intens:       78.996                 19.851                 37.202
 Frequency:       338.74                 408.19                 451.61
 Force Cnst:      0.0861                 0.5961                 1.2356
 Red. Mass:       1.2733                 6.0722                10.2829
 IR Intens:      425.412                 23.129                 26.490
 Frequency:       552.86                 558.01                 599.97
 Force Cnst:      1.6767                 0.3921                 0.4099
 Red. Mass:       9.3104                 2.1374                 1.9329
 IR Intens:        3.877                281.206                  3.228
 Frequency:       654.29                 780.71                 797.31
 Force Cnst:      1.3558                 3.6296                 3.4548
 Red. Mass:       5.3751                10.1070                 9.2241
 IR Intens:       65.846                 61.623                 10.142
 Frequency:       930.10                1061.68                1188.03
 Force Cnst:      4.0792                 2.6110                 1.2438
 Red. Mass:       8.0033                 3.9316                 1.4956
 IR Intens:      251.542                306.689                416.291
 Frequency:      1215.16                1238.45                1265.43
 Force Cnst:      4.5002                 1.3602                14.4871
 Red. Mass:       5.1726                 1.5052                15.3552
 IR Intens:      428.685                 43.881                 16.955
 Frequency:      1327.54                1510.33                1815.02
 Force Cnst:      2.0514                 2.8204                19.1095
 Red. Mass:       1.9757                 2.0985                 9.8454
 IR Intens:      587.787                 52.837                596.531
 Frequency:      3706.87                3758.42                3762.60
 Force Cnst:      8.6279                 8.8738                 8.8941
 Red. Mass:       1.0657                 1.0662                 1.0663
 IR Intens:      362.552                113.699                341.982

 STANDARD THERMODYNAMIC QUANTITIES AT   298.15 K  AND     1.00 ATM

   This Molecule has  0 Imaginary Frequencies
   Zero point vibrational energy:       41.602 kcal/mol

   Atom    1 Element C  Has Mass   12.00000
   Atom    2 Element O  Has Mass   15.99491
   Atom    3 Element H  Has Mass    1.00783
   Atom    4 Element C  Has Mass   12.00000
   Atom    5 Element O  Has Mass   15.99491
   Atom    6 Element O  Has Mass   15.99491
   Atom    7 Element O  Has Mass   15.99491
   Atom    8 Element H  Has Mass    1.00783
   Atom    9 Element O  Has Mass   15.99491
   Atom   10 Element O  Has Mass   15.99491
   Atom   11 Element H  Has Mass    1.00783
   Molecular Mass:   122.992950 amu
   Principal axes and moments of inertia in amu*Bohr^2:
                             1           2           3
    Eigenvalues --      699.71729   900.13325   967.31120
          X               0.93126     0.27249    -0.24187
          Y               0.10594     0.43265     0.89531
          Z              -0.34861     0.85940    -0.37405
   Rotational Symmetry Number is   1
   The Molecule is an Asymmetric Top
   Translational Enthalpy:        0.889 kcal/mol
   Rotational Enthalpy:           0.889 kcal/mol
   Vibrational Enthalpy:         44.998 kcal/mol
   gas constant (RT):             0.592 kcal/mol
   Translational Entropy:        40.335  cal/mol.K
   Rotational Entropy:           27.901  cal/mol.K
   Vibrational Entropy:          20.941  cal/mol.K

   Total Enthalpy:               47.368 kcal/mol
   Total Entropy:                89.177  cal/mol.K
 Total job time:  7147.72s(wall), 55529.23s(cpu)
        *  Thank you very much for using Q-Chem.  Have a nice day.  *
