 Q-Chem 5.4, Q-Chem, Inc., Pleasanton, CA (2021)
 Q-Chem 5.4.1 for Intel X86 EM64T Linux

User input:
--------------------------------------------------------------
$molecule
0 2
C         0.5461049446    0.1433778514    0.3961671386
O         1.3402772340   -0.7262817037    0.6634249386
H        -2.5666021038    0.7787768635   -0.2171503077
C        -0.9735121021   -0.1210489475    0.4087911146
O        -1.1981341754   -1.4105067772    0.0254838869
O        -1.5978764144    0.8667478304   -0.3051226606
O         0.9093428965    1.3881707936    0.1088269482
H         0.1155647238    1.9253485056   -0.0901588858
O        -1.4124249585   -0.0578044396    1.8283368827
O        -1.1878297125    1.1342542461    2.3284444577
H        -2.1612867319   -1.5603507225   -0.0263550131
$end

$rem
BASIS = 6-311++G(2df,2p)
GUI = 2
JOB_TYPE = Optimization
METHOD = wB97M-V
SCF_ALGORITHM = DIIS_GDM
MAX_SCF_CYCLES = 400
GEOM_OPT_MAX_CYCLES = 150
SCF_CONVERGENCE = 7
THRESH = 12
UNRESTRICTED = 1
Solvent_method = SMD
$end
--------------------------------------------------------------

   22    -529.3166375472      6.90e-08  Convergence criterion met
 Total energy in the final basis set =     -529.3099992212
   20    -529.3172571447      9.09e-08  Convergence criterion met
 Total energy in the final basis set =     -529.3105025918
   20    -529.3169875411      6.88e-08  Convergence criterion met
 Total energy in the final basis set =     -529.3101598550
   20    -529.3174592017      6.84e-08  Convergence criterion met
 Total energy in the final basis set =     -529.3106763923
   20    -529.3175257505      6.90e-08  Convergence criterion met
 Total energy in the final basis set =     -529.3107551783
   20    -529.3175886313      9.02e-08  Convergence criterion met
 Total energy in the final basis set =     -529.3108450670
   20    -529.3176031421      6.50e-08  Convergence criterion met
 Total energy in the final basis set =     -529.3108806469
   20    -529.3176067132      5.81e-08  Convergence criterion met
 Total energy in the final basis set =     -529.3108941046
   19    -529.3176057201      8.35e-08  Convergence criterion met
 Total energy in the final basis set =     -529.3108987219
   19    -529.3176053025      7.67e-08  Convergence criterion met
 Total energy in the final basis set =     -529.3109003204
   19    -529.3176078500      6.37e-08  Convergence criterion met
 Total energy in the final basis set =     -529.3109014689

             Standard Nuclear Orientation (Angstroms)
    I     Atom           X                Y                Z
 ----------------------------------------------------------------
    1      C       0.5259361465     0.2043921395     0.4740676009
    2      O       1.2874533448    -0.5711169147     0.9869908096
    3      H      -2.5875831013     0.7760436896    -0.2342908893
    4      C      -0.9933530291    -0.0778802264     0.4538855820
    5      O      -1.1924198531    -1.3245821325    -0.0584423260
    6      O      -1.6382660789     0.9534424243    -0.1592693111
    7      O       0.9252740252     1.3236119123    -0.1025326688
    8      H       0.1686586019     1.8175050908    -0.4603742573
    9      O      -1.4339563021    -0.1633635542     1.8680049276
   10      O      -1.1076507085     0.9154251556     2.5200574009
   11      H      -2.1404694451    -1.4927940843    -0.1674083686
 ----------------------------------------------------------------

   19    -529.3176115611      6.55e-08  Convergence criterion met
 Total energy in the final basis set =     -529.3109023544
 Final energy is   -529.310902354419
 **  OPTIMIZATION CONVERGED  **

                    Orbital Energies (a.u.)
 --------------------------------------------------------------

 Alpha MOs
 -- Occupied --
-19.4730 -19.4328 -19.4009 -19.3853 -19.3815 -19.3506 -10.5454 -10.5109
 -1.3654  -1.2741  -1.2452  -1.1934  -1.1747  -1.0123  -0.8614  -0.7559
 -0.7187  -0.7107  -0.6902  -0.6260  -0.6164  -0.5996  -0.5771  -0.5742
 -0.5331  -0.5083  -0.4964  -0.4549  -0.4508  -0.4288  -0.4141  -0.4055

 Beta MOs
 -- Occupied --
-19.4634 -19.4133 -19.4008 -19.3851 -19.3815 -19.3506 -10.5458 -10.5108
 -1.3423  -1.2717  -1.2430  -1.1933  -1.1746  -0.9777  -0.8563  -0.7554
 -0.7166  -0.6977  -0.6845  -0.6027  -0.5989  -0.5836  -0.5742  -0.5514
 -0.5306  -0.4980  -0.4893  -0.4529  -0.4498  -0.4222  -0.3928

          Ground-State Mulliken Net Atomic Charges

     Atom                 Charge (a.u.)    Spin (a.u.)
  --------------------------------------------------------
      1 C                     0.288493       0.012867
      2 O                    -0.439542      -0.002339
      3 H                     0.368492       0.000265
      4 C                     0.344626      -0.004367
      5 O                    -0.380251      -0.000006
      6 O                    -0.400557       0.001816
      7 O                    -0.269766       0.000758
      8 H                     0.342111      -0.000074
      9 O                    -0.011554       0.290180
     10 O                    -0.193376       0.701191
     11 H                     0.351323      -0.000291
  --------------------------------------------------------
  Sum of atomic charges =     0.000000

                    Cartesian Multipole Moments
 -----------------------------------------------------------------
    Charge (ESU x 10^10)
                 0.0000
    Dipole Moment (Debye)
         X      -7.4054      Y       1.4156      Z      -4.6164
       Tot       8.8406
    Quadrupole Moments (Debye-Ang)
        XX     -34.6217     XY       3.2251     YY     -44.8775
        XZ       2.0385     YZ      -1.2904     ZZ     -54.0485

 Total job time:  1363.25s(wall), 10594.92s(cpu)
        *  Thank you very much for using Q-Chem.  Have a nice day.  *
