 Q-Chem 5.4, Q-Chem, Inc., Pleasanton, CA (2021)
 Q-Chem 5.4.1 for Intel X86 EM64T Linux

User input:
--------------------------------------------------------------
$molecule
-1 1
O        -0.7700752962    1.0095248173   -0.0901959350
C        -0.3608196099   -0.2115914739    0.4922317158
O        -1.0496930004   -1.3042071768   -0.0673185286
C         1.1546408297   -0.3521732406    0.2396058149
O         1.8571576590    0.5647537115    0.7328913092
O         1.5662840877   -1.3426908188   -0.4048193267
H        -1.6025330528    1.2738191661    0.3164522571
H        -1.9354580049   -1.3186989432    0.3121775248
H        -0.5354792121   -0.1788818416    1.5697029686
$end

$rem
BASIS = 6-311++G(2df,2p)
GUI = 2
JOB_TYPE = Frequency
METHOD = wB97M-V
SOLVENT_METHOD = SMD
SCF_ALGORITHM = DIIS_GDM
MAX_SCF_CYCLES = 400
SCF_CONVERGENCE = 7
THRESH = 12
UNRESTRICTED = 1
SYMMETRY_IGNORE = 1
$end
--------------------------------------------------------------

   14    -379.1279402518      6.96e-08  Convergence criterion met
 Total energy in the final basis set =     -379.1212648767
   13    -379.1279399421      7.57e-08  Convergence criterion met
 Total energy in the final basis set =     -379.1212640458
   13    -379.1279388233      7.69e-08  Convergence criterion met
 Total energy in the final basis set =     -379.1212639376
   13    -379.1279378615      7.64e-08  Convergence criterion met
 Total energy in the final basis set =     -379.1212642272
   13    -379.1279415573      7.58e-08  Convergence criterion met
 Total energy in the final basis set =     -379.1212641465
   13    -379.1279405612      7.64e-08  Convergence criterion met
 Total energy in the final basis set =     -379.1212644728
   13    -379.1279391459      7.62e-08  Convergence criterion met
 Total energy in the final basis set =     -379.1212644164
   13    -379.1279361980      7.71e-08  Convergence criterion met
 Total energy in the final basis set =     -379.1212647099
   13    -379.1279400878      7.62e-08  Convergence criterion met
 Total energy in the final basis set =     -379.1212646959
   13    -379.1279400425      7.63e-08  Convergence criterion met
 Total energy in the final basis set =     -379.1212647698
   13    -379.1279402326      7.59e-08  Convergence criterion met
 Total energy in the final basis set =     -379.1212647532
   13    -379.1279402349      7.65e-08  Convergence criterion met
 Total energy in the final basis set =     -379.1212647598
   13    -379.1279400361      7.64e-08  Convergence criterion met
 Total energy in the final basis set =     -379.1212647574
   13    -379.1279398741      7.66e-08  Convergence criterion met
 Total energy in the final basis set =     -379.1212643079
   13    -379.1279394705      7.57e-08  Convergence criterion met
 Total energy in the final basis set =     -379.1212642835

                    Orbital Energies (a.u.)
 --------------------------------------------------------------

 Alpha MOs
 -- Occupied --
-19.3412 -19.3399 -19.2867 -19.2842 -10.4393 -10.4374  -1.2010  -1.1629
 -1.1310  -1.0787  -0.8140  -0.6472  -0.6385  -0.6338  -0.5766  -0.5299
 -0.5106  -0.4987  -0.4894  -0.4140  -0.4097  -0.3710  -0.3607  -0.3581

 Beta MOs
 -- Occupied --
-19.3412 -19.3399 -19.2867 -19.2842 -10.4393 -10.4374  -1.2010  -1.1629
 -1.1310  -1.0787  -0.8140  -0.6472  -0.6385  -0.6338  -0.5766  -0.5299
 -0.5106  -0.4987  -0.4894  -0.4140  -0.4097  -0.3710  -0.3607  -0.3581

          Ground-State Mulliken Net Atomic Charges

     Atom                 Charge (a.u.)    Spin (a.u.)
  --------------------------------------------------------
      1 O                    -0.446522       0.000000
      2 C                    -0.018849       0.000000
      3 O                    -0.462249       0.000000
      4 C                     0.382745       0.000000
      5 O                    -0.682640       0.000000
      6 O                    -0.670950       0.000000
      7 H                     0.338527       0.000000
      8 H                     0.336996       0.000000
      9 H                     0.222942       0.000000
  --------------------------------------------------------
  Sum of atomic charges =    -1.000000

                    Cartesian Multipole Moments
 -----------------------------------------------------------------
    Charge (ESU x 10^10)
                -4.8032
    Dipole Moment (Debye)
         X     -12.1232      Y       2.2664      Z       2.6673
       Tot      12.6183
    Quadrupole Moments (Debye-Ang)
        XX     -47.4022     XY       1.7347     YY     -47.5848
        XZ      -6.0881     YZ      -4.6020     ZZ     -38.0211

             Standard Nuclear Orientation (Angstroms)
    I     Atom           X                Y                Z
 ----------------------------------------------------------------
    1      O      -0.7700752962     1.0095248173    -0.0901959350
    2      C      -0.3608196099    -0.2115914739     0.4922317158
    3      O      -1.0496930004    -1.3042071768    -0.0673185286
    4      C       1.1546408297    -0.3521732406     0.2396058149
    5      O       1.8571576590     0.5647537115     0.7328913092
    6      O       1.5662840877    -1.3426908188    -0.4048193267
    7      H      -1.6025330528     1.2738191661     0.3164522571
    8      H      -1.9354580049    -1.3186989432     0.3121775248
    9      H      -0.5354792121    -0.1788818416     1.5697029686
 ----------------------------------------------------------------

 Frequency:        27.62                 248.96                 285.58
 Force Cnst:      0.0044                 0.0461                 0.1083
 Red. Mass:       9.6807                 1.2626                 2.2538
 IR Intens:        3.111                141.046                101.099
 Frequency:       302.08                 354.63                 472.22
 Force Cnst:      0.0916                 0.2536                 1.3711
 Red. Mass:       1.7029                 3.4219                10.4362
 IR Intens:       99.862                 40.316                 25.036
 Frequency:       599.28                 630.29                 815.50
 Force Cnst:      1.7745                 1.2322                 3.8430
 Red. Mass:       8.3862                 5.2645                 9.8079
 IR Intens:       72.886                 62.928                 68.261
 Frequency:       907.63                1200.03                1206.72
 Force Cnst:      2.2043                 1.4669                 0.9411
 Red. Mass:       4.5416                 1.7289                 1.0970
 IR Intens:       13.808                 69.851                115.096
 Frequency:      1234.82                1286.02                1379.03
 Force Cnst:      1.7668                 4.6720                 3.4694
 Red. Mass:       1.9667                 4.7947                 3.0964
 IR Intens:      192.787                537.873                200.527
 Frequency:      1404.92                1517.04                1567.81
 Force Cnst:      1.5058                 3.6261                17.3723
 Red. Mass:       1.2949                 2.6742                11.9955
 IR Intens:       58.025                 54.587               1374.743
 Frequency:      3070.14                3825.04                3827.46
 Force Cnst:      6.0291                 9.1956                 9.2088
 Red. Mass:       1.0856                 1.0667                 1.0669
 IR Intens:       54.460                123.056                127.586

 STANDARD THERMODYNAMIC QUANTITIES AT   298.15 K  AND     1.00 ATM

   This Molecule has  0 Imaginary Frequencies
   Zero point vibrational energy:       37.402 kcal/mol

   Atom    1 Element O  Has Mass   15.99491
   Atom    2 Element C  Has Mass   12.00000
   Atom    3 Element O  Has Mass   15.99491
   Atom    4 Element C  Has Mass   12.00000
   Atom    5 Element O  Has Mass   15.99491
   Atom    6 Element O  Has Mass   15.99491
   Atom    7 Element H  Has Mass    1.00783
   Atom    8 Element H  Has Mass    1.00783
   Atom    9 Element H  Has Mass    1.00783
   Molecular Mass:    91.003130 amu
   Principal axes and moments of inertia in amu*Bohr^2:
                             1           2           3
    Eigenvalues --      326.70491   523.63373   772.55138
          X               0.99750     0.00682    -0.07036
          Y              -0.02383     0.96953    -0.24380
          Z               0.06656     0.24487     0.96727
   Rotational Symmetry Number is   1
   The Molecule is an Asymmetric Top
   Translational Enthalpy:        0.889 kcal/mol
   Rotational Enthalpy:           0.889 kcal/mol
   Vibrational Enthalpy:         39.499 kcal/mol
   gas constant (RT):             0.592 kcal/mol
   Translational Entropy:        39.437  cal/mol.K
   Rotational Entropy:           26.383  cal/mol.K
   Vibrational Entropy:          13.899  cal/mol.K

   Total Enthalpy:               41.869 kcal/mol
   Total Entropy:                79.718  cal/mol.K
 Total job time:  3247.71s(wall), 23222.72s(cpu)
        *  Thank you very much for using Q-Chem.  Have a nice day.  *
