 Q-Chem 5.4, Q-Chem, Inc., Pleasanton, CA (2021)
 Q-Chem 5.4.1 for Intel X86 EM64T Linux

User input:
--------------------------------------------------------------
$molecule
-1 1
O        -0.7657880660    1.0527506494    0.0144797749
C        -0.3525735743   -0.2117506845    0.4962192404
O        -1.0418639450   -1.2654915069   -0.1416176222
C         1.1662864312   -0.3512125328    0.2324063744
O         1.8531408128    0.6705151806    0.4943822132
O         1.5836522570   -1.4651672551   -0.1721928077
H        -1.6434354212    1.2270407784    0.3915367207
H        -1.9492614337   -1.2550111888    0.2043887511
H        -0.5261326608   -0.2618192403    1.5811251552
$end

$rem
BASIS = 6-311++G(2df,2p)
GUI = 2
JOB_TYPE = Optimization
METHOD = wB97M-V
SCF_ALGORITHM = DIIS_GDM
MAX_SCF_CYCLES = 400
GEOM_OPT_MAX_CYCLES = 150
SCF_CONVERGENCE = 7
THRESH = 12
Solvent_method = SMD
$end
--------------------------------------------------------------

   14    -379.1274591854      5.98e-08  Convergence criterion met
 Total energy in the final basis set =     -379.1208331376
   13    -379.1277939171      6.52e-08  Convergence criterion met
 Total energy in the final basis set =     -379.1211182423
   13    -379.1249992269      5.53e-08  Convergence criterion met
 Total energy in the final basis set =     -379.1182418412
   13    -379.1278679715      5.12e-08  Convergence criterion met
 Total energy in the final basis set =     -379.1211869539
   13    -379.1278945064      7.61e-08  Convergence criterion met
 Total energy in the final basis set =     -379.1212135152
   13    -379.1279107581      7.58e-08  Convergence criterion met
 Total energy in the final basis set =     -379.1212284831
   13    -379.1279293312      5.70e-08  Convergence criterion met
 Total energy in the final basis set =     -379.1212446767
   13    -379.1279382450      6.66e-08  Convergence criterion met
 Total energy in the final basis set =     -379.1212530320
   13    -379.1279426692      4.97e-08  Convergence criterion met
 Total energy in the final basis set =     -379.1212595968
   13    -379.1279427227      8.02e-08  Convergence criterion met
 Total energy in the final basis set =     -379.1212625697
   13    -379.1279408771      7.68e-08  Convergence criterion met
 Total energy in the final basis set =     -379.1212645662

             Standard Nuclear Orientation (Angstroms)
    I     Atom           X                Y                Z
 ----------------------------------------------------------------
    1      O      -0.7700752962     1.0095248173    -0.0901959350
    2      C      -0.3608196099    -0.2115914739     0.4922317158
    3      O      -1.0496930004    -1.3042071768    -0.0673185286
    4      C       1.1546408297    -0.3521732406     0.2396058149
    5      O       1.8571576590     0.5647537115     0.7328913092
    6      O       1.5662840877    -1.3426908188    -0.4048193267
    7      H      -1.6025330528     1.2738191661     0.3164522571
    8      H      -1.9354580049    -1.3186989432     0.3121775248
    9      H      -0.5354792121    -0.1788818416     1.5697029686
 ----------------------------------------------------------------

   13    -379.1279402520      7.70e-08  Convergence criterion met
 Total energy in the final basis set =     -379.1212648768
 Final energy is   -379.121264876843
 **  OPTIMIZATION CONVERGED  **

                    Orbital Energies (a.u.)
 --------------------------------------------------------------

 Alpha MOs
 -- Occupied --
-19.3412 -19.3399 -19.2867 -19.2842 -10.4393 -10.4375  -1.2010  -1.1629
 -1.1310  -1.0787  -0.8139  -0.6471  -0.6385  -0.6338  -0.5766  -0.5299
 -0.5106  -0.4987  -0.4894  -0.4139  -0.4097  -0.3710  -0.3607  -0.3581

          Ground-State Mulliken Net Atomic Charges

     Atom                 Charge (a.u.)
  ----------------------------------------
      1 O                    -0.446455
      2 C                    -0.018808
      3 O                    -0.462189
      4 C                     0.382788
      5 O                    -0.682635
      6 O                    -0.670952
      7 H                     0.338541
      8 H                     0.337013
      9 H                     0.222699
  ----------------------------------------
  Sum of atomic charges =    -1.000000

                    Cartesian Multipole Moments
 -----------------------------------------------------------------
    Charge (ESU x 10^10)
                -4.8032
    Dipole Moment (Debye)
         X     -12.1234      Y       2.2664      Z       2.6665
       Tot      12.6183
    Quadrupole Moments (Debye-Ang)
        XX     -47.4026     XY       1.7346     YY     -47.5847
        XZ      -6.0876     YZ      -4.6018     ZZ     -38.0220

 Total job time:  728.25s(wall), 4918.06s(cpu)
        *  Thank you very much for using Q-Chem.  Have a nice day.  *
