 Q-Chem 5.4, Q-Chem, Inc., Pleasanton, CA (2021)
 Q-Chem 5.4.1 for Intel X86 EM64T Linux

User input:
--------------------------------------------------------------
$molecule
0 2
C         0.5259361465    0.2043921395    0.4740676009
O         1.2874533448   -0.5711169147    0.9869908096
H        -2.5875831013    0.7760436896   -0.2342908893
C        -0.9933530291   -0.0778802264    0.4538855820
O        -1.1924198531   -1.3245821325   -0.0584423260
O        -1.6382660789    0.9534424243   -0.1592693111
O         0.9252740252    1.3236119123   -0.1025326688
H         0.1686586019    1.8175050908   -0.4603742573
O        -1.4339563021   -0.1633635542    1.8680049276
O        -1.1076507085    0.9154251556    2.5200574009
H        -2.1404694451   -1.4927940843   -0.1674083686
$end

$rem
BASIS = def2-TZVPPD
JOB_TYPE = SP
METHOD = wB97M-V
SCF_ALGORITHM = DIIS_GDM
MAX_SCF_CYCLES = 400
SCF_CONVERGENCE = 7
THRESH = 12
Solvent_method = SMD
$end
--------------------------------------------------------------

             Standard Nuclear Orientation (Angstroms)
    I     Atom           X                Y                Z
 ----------------------------------------------------------------
    1      C       0.5259361465     0.2043921395     0.4740676009
    2      O       1.2874533448    -0.5711169147     0.9869908096
    3      H      -2.5875831013     0.7760436896    -0.2342908893
    4      C      -0.9933530291    -0.0778802264     0.4538855820
    5      O      -1.1924198531    -1.3245821325    -0.0584423260
    6      O      -1.6382660789     0.9534424243    -0.1592693111
    7      O       0.9252740252     1.3236119123    -0.1025326688
    8      H       0.1686586019     1.8175050908    -0.4603742573
    9      O      -1.4339563021    -0.1633635542     1.8680049276
   10      O      -1.1076507085     0.9154251556     2.5200574009
   11      H      -2.1404694451    -1.4927940843    -0.1674083686
 ----------------------------------------------------------------

   21    -529.3556816665      9.16e-08  Convergence criterion met
 Total energy in the final basis set =     -529.3489724598

                    Orbital Energies (a.u.)
 --------------------------------------------------------------

 Alpha MOs
 -- Occupied --
-19.4708 -19.4303 -19.3987 -19.3829 -19.3792 -19.3480 -10.5439 -10.5092
 -1.3622  -1.2713  -1.2423  -1.1906  -1.1719  -1.0095  -0.8590  -0.7537
 -0.7165  -0.7085  -0.6880  -0.6238  -0.6143  -0.5976  -0.5751  -0.5721
 -0.5310  -0.5062  -0.4944  -0.4531  -0.4489  -0.4267  -0.4119  -0.4034

 Beta MOs
 -- Occupied --
-19.4612 -19.4109 -19.3987 -19.3827 -19.3793 -19.3480 -10.5443 -10.5091
 -1.3392  -1.2689  -1.2401  -1.1905  -1.1718  -0.9749  -0.8539  -0.7532
 -0.7144  -0.6955  -0.6823  -0.6006  -0.5969  -0.5816  -0.5720  -0.5493
 -0.5285  -0.4960  -0.4872  -0.4511  -0.4479  -0.4201  -0.3906

          Ground-State Mulliken Net Atomic Charges

     Atom                 Charge (a.u.)    Spin (a.u.)
  --------------------------------------------------------
      1 C                     0.315307       0.013708
      2 O                    -0.641227      -0.000679
      3 H                     0.186479      -0.002997
      4 C                     1.243296      -0.009548
      5 O                    -0.439597      -0.001005
      6 O                    -0.450048       0.005761
      7 O                    -0.379395       0.002090
      8 H                     0.290497      -0.000473
      9 O                    -0.000896       0.275428
     10 O                    -0.332118       0.715891
     11 H                     0.207702       0.001824
  --------------------------------------------------------
  Sum of atomic charges =     0.000000

                    Cartesian Multipole Moments
 -----------------------------------------------------------------
    Charge (ESU x 10^10)
                 0.0000
    Dipole Moment (Debye)
         X      -7.3735      Y       1.4133      Z      -4.5943
       Tot       8.8019
    Quadrupole Moments (Debye-Ang)
        XX     -34.5396     XY       3.2230     YY     -44.6885
        XZ       1.9967     YZ      -1.2733     ZZ     -53.8121

 Total job time:  518.75s(wall), 2061.43s(cpu)
        *  Thank you very much for using Q-Chem.  Have a nice day.  *
