 Q-Chem 5.4, Q-Chem, Inc., Pleasanton, CA (2021)
 Q-Chem 5.4.1 for Intel X86 EM64T Linux

User input:
--------------------------------------------------------------
$molecule
0 2
O        -1.7005575682    1.7829465742    0.6678097587
H        -0.9876783031    2.4000545673    0.4231752626
$end

$rem
BASIS = def2-TZVPPD
JOB_TYPE = SP
METHOD = wB97M-V
SCF_ALGORITHM = DIIS_GDM
MAX_SCF_CYCLES = 400
SCF_CONVERGENCE = 7
THRESH = 12
Solvent_method = SMD
$end
--------------------------------------------------------------

             Standard Nuclear Orientation (Angstroms)
    I     Atom           X                Y                Z
 ----------------------------------------------------------------
    1      O      -1.7005575682     1.7829465742     0.6678097587
    2      H      -0.9876783031     2.4000545673     0.4231752626
 ----------------------------------------------------------------

   28     -75.7512712583      5.89e-08  Convergence criterion met
 Total energy in the final basis set =      -75.7500942709

                    Orbital Energies (a.u.)
 --------------------------------------------------------------

 Alpha MOs
 -- Occupied --
-19.4017  -1.1405  -0.5895  -0.5193  -0.4635

 Beta MOs
 -- Occupied --
-19.3772  -1.0691  -0.5596  -0.4310

          Ground-State Mulliken Net Atomic Charges

     Atom                 Charge (a.u.)    Spin (a.u.)
  --------------------------------------------------------
      1 O                    -0.274602       1.017294
      2 H                     0.274602      -0.017294
  --------------------------------------------------------
  Sum of atomic charges =    -0.000000

                    Cartesian Multipole Moments
 -----------------------------------------------------------------
    Charge (ESU x 10^10)
                -0.0000
    Dipole Moment (Debye)
         X       1.5370      Y       1.3306      Z      -0.5274
       Tot       2.1003
    Quadrupole Moments (Debye-Ang)
        XX     -10.6556     XY       1.8556     YY      -1.1168
        XZ       1.6966     YZ      -0.3356     ZZ      -6.2375

 Total job time:  12.79s(wall), 45.98s(cpu)
        *  Thank you very much for using Q-Chem.  Have a nice day.  *
