 Q-Chem 5.4, Q-Chem, Inc., Pleasanton, CA (2021)
 Q-Chem 5.4.1 for Intel X86 EM64T Linux

User input:
--------------------------------------------------------------
$molecule
-1 2
C         0.2893629763    0.0315406487    0.5566337965
O         0.6541680611   -1.1565349345    0.4174602413
C        -1.2484564108    0.2451230646    0.4406601187
O        -1.9097781564   -0.9131982675    0.1604466214
O        -1.5417753257    1.2702625386   -0.4185445904
O         0.9759381516    1.0444137214    0.7745928551
O        -1.7384232270    0.7473130169    1.7662032033
O        -1.5108119417   -0.1144755690    2.7119986494
H        -1.2217318192   -1.6053856353    0.1817768981
H        -2.4856635083    1.2394733162   -0.6302879932
$end

$rem
BASIS = 6-311++G(2df,2p)
GUI = 2
JOB_TYPE = Frequency
METHOD = wB97M-V
SOLVENT_METHOD = SMD
SCF_ALGORITHM = DIIS_GDM
MAX_SCF_CYCLES = 400
SCF_CONVERGENCE = 7
THRESH = 12
UNRESTRICTED = 1
SYMMETRY_IGNORE = 1
$end
--------------------------------------------------------------

   21    -528.8808354626      6.42e-08  Convergence criterion met
 Total energy in the final basis set =     -528.8745175770
   19    -528.8808394880      1.00e-07  Convergence criterion met
 Total energy in the final basis set =     -528.8745164900
   20    -528.8808293517      5.68e-08  Convergence criterion met
 Total energy in the final basis set =     -528.8745165964
   19    -528.8808331984      9.86e-08  Convergence criterion met
 Total energy in the final basis set =     -528.8745159313
   19    -528.8808346417      8.79e-08  Convergence criterion met
 Total energy in the final basis set =     -528.8745161957
   19    -528.8808353367      9.99e-08  Convergence criterion met
 Total energy in the final basis set =     -528.8745173223
   19    -528.8808346584      9.05e-08  Convergence criterion met
 Total energy in the final basis set =     -528.8745169075
   20    -528.8808340483      4.60e-08  Convergence criterion met
 Total energy in the final basis set =     -528.8745176466
   20    -528.8808355040      4.81e-08  Convergence criterion met
 Total energy in the final basis set =     -528.8745174627
   20    -528.8808338824      4.59e-08  Convergence criterion met
 Total energy in the final basis set =     -528.8745166323
   20    -528.8808353114      4.59e-08  Convergence criterion met
 Total energy in the final basis set =     -528.8745167905
   20    -528.8808356763      4.62e-08  Convergence criterion met
 Total energy in the final basis set =     -528.8745173899
   20    -528.8808351241      4.64e-08  Convergence criterion met
 Total energy in the final basis set =     -528.8745176389
   20    -528.8808348548      4.65e-08  Convergence criterion met
 Total energy in the final basis set =     -528.8745174363
   20    -528.8808358920      4.55e-08  Convergence criterion met
 Total energy in the final basis set =     -528.8745175390

                    Orbital Energies (a.u.)
 --------------------------------------------------------------

 Alpha MOs
 -- Occupied --
-19.4584 -19.4185 -19.3664 -19.3603 -19.3043 -19.2994 -10.5122 -10.4575
 -1.3492  -1.2379  -1.1837  -1.1659  -1.0995  -0.9945  -0.8109  -0.7187
 -0.6766  -0.6671  -0.6134  -0.6087  -0.5894  -0.5477  -0.5292  -0.5268
 -0.5110  -0.4776  -0.4365  -0.4159  -0.4011  -0.3854  -0.3760  -0.3676

 Beta MOs
 -- Occupied --
-19.4482 -19.3996 -19.3665 -19.3602 -19.3042 -19.2994 -10.5126 -10.4573
 -1.3250  -1.2344  -1.1836  -1.1657  -1.0993  -0.9596  -0.8045  -0.7127
 -0.6732  -0.6568  -0.6044  -0.5797  -0.5527  -0.5432  -0.5269  -0.5199
 -0.5056  -0.4716  -0.4335  -0.3960  -0.3853  -0.3759  -0.3660

          Ground-State Mulliken Net Atomic Charges

     Atom                 Charge (a.u.)    Spin (a.u.)
  --------------------------------------------------------
      1 C                     0.499969       0.015680
      2 O                    -0.603109       0.003012
      3 C                     0.136986      -0.008393
      4 O                    -0.417659      -0.000008
      5 O                    -0.407718       0.000258
      6 O                    -0.631048      -0.001124
      7 O                    -0.006772       0.313154
      8 O                    -0.239214       0.677699
      9 H                     0.329312       0.000461
     10 H                     0.339253      -0.000739
  --------------------------------------------------------
  Sum of atomic charges =    -1.000000

                    Cartesian Multipole Moments
 -----------------------------------------------------------------
    Charge (ESU x 10^10)
                -4.8032
    Dipole Moment (Debye)
         X      -3.5988      Y      -0.9913      Z      -5.8018
       Tot       6.8989
    Quadrupole Moments (Debye-Ang)
        XX     -51.6148     XY      -3.0440     YY     -54.5454
        XZ       3.9575     YZ      -1.8850     ZZ     -57.8595

             Standard Nuclear Orientation (Angstroms)
    I     Atom           X                Y                Z
 ----------------------------------------------------------------
    1      C       0.2893629763     0.0315406487     0.5566337965
    2      O       0.6541680611    -1.1565349345     0.4174602413
    3      C      -1.2484564108     0.2451230646     0.4406601187
    4      O      -1.9097781564    -0.9131982675     0.1604466214
    5      O      -1.5417753257     1.2702625386    -0.4185445904
    6      O       0.9759381516     1.0444137214     0.7745928551
    7      O      -1.7384232270     0.7473130169     1.7662032033
    8      O      -1.5108119417    -0.1144755690     2.7119986494
    9      H      -1.2217318192    -1.6053856353     0.1817768981
   10      H      -2.4856635083     1.2394733162    -0.6302879932
 ----------------------------------------------------------------

 Frequency:        48.56                  95.53                 215.75
 Force Cnst:      0.0181                 0.0800                 0.3000
 Red. Mass:      13.0367                14.8796                10.9395
 IR Intens:        2.876                  3.747                  6.773
 Frequency:       265.89                 276.49                 317.08
 Force Cnst:      0.2044                 0.0545                 0.5665
 Red. Mass:       4.9078                 1.2089                 9.5628
 IR Intens:       22.661                174.841                 53.694
 Frequency:       393.82                 444.55                 507.09
 Force Cnst:      0.6231                 0.8417                 0.1946
 Red. Mass:       6.8189                 7.2291                 1.2847
 IR Intens:       35.410                 22.472                105.979
 Frequency:       561.58                 586.02                 660.20
 Force Cnst:      1.4643                 1.3640                 1.8648
 Red. Mass:       7.8804                 6.7412                 7.2615
 IR Intens:       19.956                 91.540                 75.113
 Frequency:       785.41                 821.98                 912.70
 Force Cnst:      4.0318                 5.0939                 4.2853
 Red. Mass:      11.0933                12.7961                 8.7313
 IR Intens:      192.035                 56.033                237.294
 Frequency:      1067.85                1169.65                1281.62
 Force Cnst:      2.0638                 2.8338                14.9280
 Red. Mass:       3.0718                 3.5157                15.4252
 IR Intens:      236.476                605.963                 24.554
 Frequency:      1298.98                1371.72                1488.92
 Force Cnst:      1.4696                 4.0198                 3.9863
 Red. Mass:       1.4782                 3.6260                 3.0520
 IR Intens:      115.622                420.903                172.695
 Frequency:      1636.06                3597.63                3774.17
 Force Cnst:     16.0067                 8.1166                 8.9433
 Red. Mass:      10.1497                 1.0644                 1.0656
 IR Intens:     1185.845                370.848                179.070

 STANDARD THERMODYNAMIC QUANTITIES AT   298.15 K  AND     1.00 ATM

   This Molecule has  0 Imaginary Frequencies
   Zero point vibrational energy:       33.708 kcal/mol

   Atom    1 Element C  Has Mass   12.00000
   Atom    2 Element O  Has Mass   15.99491
   Atom    3 Element C  Has Mass   12.00000
   Atom    4 Element O  Has Mass   15.99491
   Atom    5 Element O  Has Mass   15.99491
   Atom    6 Element O  Has Mass   15.99491
   Atom    7 Element O  Has Mass   15.99491
   Atom    8 Element O  Has Mass   15.99491
   Atom    9 Element H  Has Mass    1.00783
   Atom   10 Element H  Has Mass    1.00783
   Molecular Mass:   121.985120 amu
   Principal axes and moments of inertia in amu*Bohr^2:
                             1           2           3
    Eigenvalues --      688.76951   890.33889   956.48594
          X               0.93741     0.29103     0.19122
          Y              -0.09751    -0.30778     0.94645
          Z              -0.33430     0.90585     0.26014
   Rotational Symmetry Number is   1
   The Molecule is an Asymmetric Top
   Translational Enthalpy:        0.889 kcal/mol
   Rotational Enthalpy:           0.889 kcal/mol
   Vibrational Enthalpy:         36.851 kcal/mol
   gas constant (RT):             0.592 kcal/mol
   Translational Entropy:        40.310  cal/mol.K
   Rotational Entropy:           27.863  cal/mol.K
   Vibrational Entropy:          19.463  cal/mol.K

   Total Enthalpy:               39.220 kcal/mol
   Total Entropy:                87.637  cal/mol.K
 Total job time:  6916.85s(wall), 53656.21s(cpu)
        *  Thank you very much for using Q-Chem.  Have a nice day.  *
