 Q-Chem 5.4, Q-Chem, Inc., Pleasanton, CA (2021)
 Q-Chem 5.4.1 for Intel X86 EM64T Linux

User input:
--------------------------------------------------------------
$molecule
0 2
O        -0.7265937369    0.9841477964    0.4577690803
C        -0.2402478792   -0.2480819922    0.2787714565
O        -1.0332743381   -1.2873550349    0.0253175921
C         1.1606206866   -0.4586142849    0.3412688524
O         1.9284314593    0.6167230263    0.6653942023
O         1.7012960441   -1.5446342061    0.1197841305
H        -1.6551020347    0.9778739983    0.7336224659
H        -1.9370777822   -1.0038659970   -0.1746886398
H         1.3743443810    1.3906540943    0.8401361600
$end

$rem
BASIS = 6-311++G**
JOB_TYPE = SP
METHOD = wB97M-V
SCF_ALGORITHM = DIIS_GDM
MAX_SCF_CYCLES = 400
SCF_CONVERGENCE = 7
THRESH = 12
Solvent_method = SMD
$end
--------------------------------------------------------------

             Standard Nuclear Orientation (Angstroms)
    I     Atom           X                Y                Z
 ----------------------------------------------------------------
    1      O      -0.7265937369     0.9841477964     0.4577690803
    2      C      -0.2402478792    -0.2480819922     0.2787714565
    3      O      -1.0332743381    -1.2873550349     0.0253175921
    4      C       1.1606206866    -0.4586142849     0.3412688524
    5      O       1.9284314593     0.6167230263     0.6653942023
    6      O       1.7012960441    -1.5446342061     0.1197841305
    7      H      -1.6551020347     0.9778739983     0.7336224659
    8      H      -1.9370777822    -1.0038659970    -0.1746886398
    9      H       1.3743443810     1.3906540943     0.8401361600
 ----------------------------------------------------------------

   17    -378.9203833596      3.97e-08  Convergence criterion met
 Total energy in the final basis set =     -378.9120906467

                    Orbital Energies (a.u.)
 --------------------------------------------------------------

 Alpha MOs
 -- Occupied --
-19.3991 -19.3977 -19.3763 -19.3235 -10.4896 -10.4827  -1.2743  -1.2287
 -1.1993  -1.1491  -0.8799  -0.7377  -0.7275  -0.6870  -0.6152  -0.5936
 -0.5710  -0.5437  -0.5219  -0.4971  -0.4885  -0.4426  -0.4089  -0.2792

 Beta MOs
 -- Occupied --
-19.3961 -19.3944 -19.3752 -19.3184 -10.4816 -10.4811  -1.2661  -1.2243
 -1.1921  -1.1419  -0.8616  -0.7331  -0.7212  -0.6805  -0.5913  -0.5853
 -0.5641  -0.5270  -0.5165  -0.4918  -0.4630  -0.4190  -0.4018

          Ground-State Mulliken Net Atomic Charges

     Atom                 Charge (a.u.)    Spin (a.u.)
  --------------------------------------------------------
      1 O                    -0.267518       0.077992
      2 C                     0.149637       0.512425
      3 O                    -0.243322       0.089371
      4 C                     0.085373       0.104076
      5 O                    -0.287443       0.032057
      6 O                    -0.487414       0.182941
      7 H                     0.374934       0.003106
      8 H                     0.364090      -0.000617
      9 H                     0.311663      -0.001351
  --------------------------------------------------------
  Sum of atomic charges =     0.000000

                    Cartesian Multipole Moments
 -----------------------------------------------------------------
    Charge (ESU x 10^10)
                 0.0000
    Dipole Moment (Debye)
         X      -9.4650      Y       5.4005      Z       0.9846
       Tot      10.9417
    Quadrupole Moments (Debye-Ang)
        XX     -35.2963     XY       6.8618     YY     -41.5480
        XZ      -2.1861     YZ       2.3916     ZZ     -33.2952

 Total job time:  33.94s(wall), 132.04s(cpu)
        *  Thank you very much for using Q-Chem.  Have a nice day.  *
