 Q-Chem 5.4, Q-Chem, Inc., Pleasanton, CA (2021)
 Q-Chem 5.4.1 for Intel X86 EM64T Linux

User input:
--------------------------------------------------------------
$molecule
-1 2
O        -0.5898693698    1.4364167686   -0.2011324283
C        -0.0505459724    0.4558973035    0.6364534286
O        -0.9992020981   -0.4709441896    1.0550590018
C         1.1382211719   -0.2198854210   -0.0797845773
O         2.1150602176    0.5155082449   -0.3422678855
O         1.0091565412   -1.4439638257   -0.3063138284
H        -1.2923185257    1.8935755434    0.2782478755
H        -0.6832252495   -1.3229325128    0.7021992984
H         0.3900654810    0.9778650496    1.5657085859
O         1.5169367837    1.7843143470    2.2297602170
H         2.0821964203    1.6320557921    1.4474164122
$end

$rem
BASIS = def2-TZVP
JOB_TYPE = SP
METHOD = wB97M-V
SCF_ALGORITHM = DIIS_GDM
MAX_SCF_CYCLES = 400
SCF_CONVERGENCE = 7
THRESH = 12
Solvent_method = SMD
$end
--------------------------------------------------------------

             Standard Nuclear Orientation (Angstroms)
    I     Atom           X                Y                Z
 ----------------------------------------------------------------
    1      O      -0.5898693698     1.4364167686    -0.2011324283
    2      C      -0.0505459724     0.4558973035     0.6364534286
    3      O      -0.9992020981    -0.4709441896     1.0550590018
    4      C       1.1382211719    -0.2198854210    -0.0797845773
    5      O       2.1150602176     0.5155082449    -0.3422678855
    6      O       1.0091565412    -1.4439638257    -0.3063138284
    7      H      -1.2923185257     1.8935755434     0.2782478755
    8      H      -0.6832252495    -1.3229325128     0.7021992984
    9      H       0.3900654810     0.9778650496     1.5657085859
   10      O       1.5169367837     1.7843143470     2.2297602170
   11      H       2.0821964203     1.6320557921     1.4474164122
 ----------------------------------------------------------------

   23    -454.8970850072      5.81e-08  Convergence criterion met
 Total energy in the final basis set =     -454.8905046515

                    Orbital Energies (a.u.)
 --------------------------------------------------------------

 Alpha MOs
 -- Occupied --
-19.3610 -19.3487 -19.3424 -19.2945 -19.2904 -10.4519 -10.4464  -1.2132
 -1.1698  -1.1409  -1.1141  -1.0878  -0.8147  -0.6878  -0.6476  -0.6194
 -0.5910  -0.5656  -0.5374  -0.5214  -0.5164  -0.4947  -0.4848  -0.4386
 -0.4185  -0.3913  -0.3784  -0.3680  -0.3535

 Beta MOs
 -- Occupied --
-19.3477 -19.3412 -19.3408 -19.2943 -19.2904 -10.4477 -10.4464  -1.2104
 -1.1690  -1.1382  -1.0890  -1.0612  -0.8071  -0.6813  -0.6423  -0.6066
 -0.5851  -0.5467  -0.5350  -0.5169  -0.5129  -0.4866  -0.4219  -0.4111
 -0.4073  -0.3773  -0.3693  -0.3620

          Ground-State Mulliken Net Atomic Charges

     Atom                 Charge (a.u.)    Spin (a.u.)
  --------------------------------------------------------
      1 O                    -0.488358       0.032143
      2 C                     0.093221       0.183618
      3 O                    -0.503753       0.031916
      4 C                     0.359435       0.002942
      5 O                    -0.612187       0.002560
      6 O                    -0.594155       0.006552
      7 H                     0.383795      -0.000220
      8 H                     0.361722       0.004737
      9 H                     0.169607      -0.019270
     10 O                    -0.536306       0.767037
     11 H                     0.366977      -0.012017
  --------------------------------------------------------
  Sum of atomic charges =    -1.000000

                    Cartesian Multipole Moments
 -----------------------------------------------------------------
    Charge (ESU x 10^10)
                -4.8032
    Dipole Moment (Debye)
         X      -7.4123      Y       0.4098      Z      -0.2048
       Tot       7.4264
    Quadrupole Moments (Debye-Ang)
        XX     -55.7989     XY      -2.7525     YY     -49.9230
        XZ       1.0812     YZ      -4.1207     ZZ     -53.8966

 Total job time:  198.15s(wall), 705.21s(cpu)
        *  Thank you very much for using Q-Chem.  Have a nice day.  *
