 Q-Chem 5.4, Q-Chem, Inc., Pleasanton, CA (2021)
 Q-Chem 5.4.1 for Intel X86 EM64T Linux

User input:
--------------------------------------------------------------
$molecule
0 2
O        -0.7265937369    0.9841477964    0.4577690803
C        -0.2402478792   -0.2480819922    0.2787714565
O        -1.0332743381   -1.2873550349    0.0253175921
C         1.1606206866   -0.4586142849    0.3412688524
O         1.9284314593    0.6167230263    0.6653942023
O         1.7012960441   -1.5446342061    0.1197841305
H        -1.6551020347    0.9778739983    0.7336224659
H        -1.9370777822   -1.0038659970   -0.1746886398
H         1.3743443810    1.3906540943    0.8401361600
$end

$rem
BASIS = def2-TZVPD
JOB_TYPE = SP
METHOD = wB97M-V
SCF_ALGORITHM = DIIS_GDM
MAX_SCF_CYCLES = 400
SCF_CONVERGENCE = 7
THRESH = 12
Solvent_method = SMD
$end
--------------------------------------------------------------

             Standard Nuclear Orientation (Angstroms)
    I     Atom           X                Y                Z
 ----------------------------------------------------------------
    1      O      -0.7265937369     0.9841477964     0.4577690803
    2      C      -0.2402478792    -0.2480819922     0.2787714565
    3      O      -1.0332743381    -1.2873550349     0.0253175921
    4      C       1.1606206866    -0.4586142849     0.3412688524
    5      O       1.9284314593     0.6167230263     0.6653942023
    6      O       1.7012960441    -1.5446342061     0.1197841305
    7      H      -1.6551020347     0.9778739983     0.7336224659
    8      H      -1.9370777822    -1.0038659970    -0.1746886398
    9      H       1.3743443810     1.3906540943     0.8401361600
 ----------------------------------------------------------------

   17    -378.9646283638      6.99e-08  Convergence criterion met
 Total energy in the final basis set =     -378.9563356509

                    Orbital Energies (a.u.)
 --------------------------------------------------------------

 Alpha MOs
 -- Occupied --
-19.3960 -19.3948 -19.3737 -19.3193 -10.4849 -10.4770  -1.2681  -1.2228
 -1.1938  -1.1434  -0.8749  -0.7328  -0.7226  -0.6824  -0.6128  -0.5902
 -0.5675  -0.5414  -0.5194  -0.4946  -0.4861  -0.4404  -0.4059  -0.2768

 Beta MOs
 -- Occupied --
-19.3930 -19.3916 -19.3725 -19.3142 -10.4766 -10.4757  -1.2601  -1.2185
 -1.1867  -1.1362  -0.8565  -0.7284  -0.7165  -0.6760  -0.5885  -0.5825
 -0.5607  -0.5247  -0.5139  -0.4893  -0.4611  -0.4169  -0.3989

          Ground-State Mulliken Net Atomic Charges

     Atom                 Charge (a.u.)    Spin (a.u.)
  --------------------------------------------------------
      1 O                    -0.509402       0.082302
      2 C                     0.576651       0.464674
      3 O                    -0.452023       0.093900
      4 C                     0.484902       0.147768
      5 O                    -0.546639       0.031956
      6 O                    -0.760127       0.181154
      7 H                     0.404659       0.000735
      8 H                     0.409705      -0.001699
      9 H                     0.392272      -0.000790
  --------------------------------------------------------
  Sum of atomic charges =     0.000000

                    Cartesian Multipole Moments
 -----------------------------------------------------------------
    Charge (ESU x 10^10)
                -0.0000
    Dipole Moment (Debye)
         X      -9.2226      Y       5.3347      Z       0.9663
       Tot      10.6981
    Quadrupole Moments (Debye-Ang)
        XX     -34.7926     XY       6.8419     YY     -40.8558
        XZ      -2.0671     YZ       2.3925     ZZ     -33.1838

 Total job time:  147.77s(wall), 586.31s(cpu)
        *  Thank you very much for using Q-Chem.  Have a nice day.  *
