 Q-Chem 5.4, Q-Chem, Inc., Pleasanton, CA (2021)
 Q-Chem 5.4.1 for Intel X86 EM64T Linux

User input:
--------------------------------------------------------------
$molecule
-1 1
C        -0.7212776201   -0.6844206214    0.3942392435
O        -0.9322206661   -1.6557444258    1.1615529529
O        -1.2841758533   -0.4595739646   -0.7055055193
H         0.0409065396    0.0501519118    0.7212864230
$end

$rem
BASIS = 6-311++G(2df,2p)
GUI = 2
JOB_TYPE = Frequency
METHOD = wB97M-V
SOLVENT_METHOD = SMD
SCF_ALGORITHM = DIIS_GDM
MAX_SCF_CYCLES = 400
SCF_CONVERGENCE = 7
THRESH = 12
$end
--------------------------------------------------------------

   10    -189.3370363971      5.62e-08  Convergence criterion met
 Total energy in the final basis set =     -189.3304397324
   12    -189.3370332782      2.41e-08  Convergence criterion met
 Total energy in the final basis set =     -189.3304389621
   12    -189.3370379348      4.80e-08  Convergence criterion met
 Total energy in the final basis set =     -189.3304389319
   12    -189.3370331304      2.31e-08  Convergence criterion met
 Total energy in the final basis set =     -189.3304387395
   12    -189.3370376227      3.30e-08  Convergence criterion met
 Total energy in the final basis set =     -189.3304387131
   12    -189.3370342625      2.99e-08  Convergence criterion met
 Total energy in the final basis set =     -189.3304386341
   12    -189.3370362619      3.34e-08  Convergence criterion met
 Total energy in the final basis set =     -189.3304386173
   12    -189.3370368826      3.10e-08  Convergence criterion met
 Total energy in the final basis set =     -189.3304388977
   12    -189.3370317675      2.64e-08  Convergence criterion met
 Total energy in the final basis set =     -189.3304389002
   12    -189.3370360309      2.59e-08  Convergence criterion met
 Total energy in the final basis set =     -189.3304394072
   12    -189.3370362047      3.20e-08  Convergence criterion met
 Total energy in the final basis set =     -189.3304394964
   12    -189.3370360928      2.09e-08  Convergence criterion met
 Total energy in the final basis set =     -189.3304394678
   12    -189.3370361337      2.69e-08  Convergence criterion met
 Total energy in the final basis set =     -189.3304394270
   12    -189.3370362641      2.11e-08  Convergence criterion met
 Total energy in the final basis set =     -189.3304396174
   12    -189.3370362447      2.05e-08  Convergence criterion met
 Total energy in the final basis set =     -189.3304395617

                    Orbital Energies (a.u.)
 --------------------------------------------------------------

 Alpha MOs
 -- Occupied --
-19.2839 -19.2838 -10.4307  -1.1622  -1.0744  -0.6674  -0.5650  -0.5291
 -0.5110  -0.3702  -0.3620  -0.3569

          Ground-State Mulliken Net Atomic Charges

     Atom                 Charge (a.u.)
  ----------------------------------------
      1 C                     0.200899
      2 O                    -0.666233
      3 O                    -0.666615
      4 H                     0.131949
  ----------------------------------------
  Sum of atomic charges =    -1.000000

                    Cartesian Multipole Moments
 -----------------------------------------------------------------
    Charge (ESU x 10^10)
                -4.8032
    Dipole Moment (Debye)
         X       6.5403      Y       6.2530      Z      -0.5721
       Tot       9.0665
    Quadrupole Moments (Debye-Ang)
        XX     -27.5622     XY      -7.1078     YY     -29.6638
        XZ      -0.4259     YZ       5.7958     ZZ     -26.4279

             Standard Nuclear Orientation (Angstroms)
    I     Atom           X                Y                Z
 ----------------------------------------------------------------
    1      C      -0.7212776201    -0.6844206214     0.3942392435
    2      O      -0.9322206661    -1.6557444258     1.1615529529
    3      O      -1.2841758533    -0.4595739646    -0.7055055193
    4      H       0.0409065396     0.0501519118     0.7212864230
 ----------------------------------------------------------------

 Frequency:       744.35                1082.03                1358.08
 Force Cnst:      3.7887                 1.2102                11.3350
 Red. Mass:      11.6061                 1.7544                10.4308
 IR Intens:       56.565                  0.309                182.404
 Frequency:      1384.97                1539.23                2910.05
 Force Cnst:      1.3625                 8.0447                 5.3668
 Red. Mass:       1.2056                 5.7630                 1.0756
 IR Intens:      212.452               1477.860                237.534

 STANDARD THERMODYNAMIC QUANTITIES AT   298.15 K  AND     1.00 ATM

   This Molecule has  0 Imaginary Frequencies
   Zero point vibrational energy:       12.893 kcal/mol

   Atom    1 Element C  Has Mass   12.00000
   Atom    2 Element O  Has Mass   15.99491
   Atom    3 Element O  Has Mass   15.99491
   Atom    4 Element H  Has Mass    1.00783
   Molecular Mass:    44.997650 amu
   Principal axes and moments of inertia in amu*Bohr^2:
                             1           2           3
    Eigenvalues --       17.96574   143.95677   161.92251
          X               0.15677     0.68770     0.70886
          Y              -0.53278     0.66323    -0.52561
          Z               0.83161     0.29527    -0.47037
   Rotational Symmetry Number is   1
   The Molecule is an Asymmetric Top
   Translational Enthalpy:        0.889 kcal/mol
   Rotational Enthalpy:           0.889 kcal/mol
   Vibrational Enthalpy:         12.983 kcal/mol
   gas constant (RT):             0.592 kcal/mol
   Translational Entropy:        37.338  cal/mol.K
   Rotational Entropy:           20.665  cal/mol.K
   Vibrational Entropy:           0.375  cal/mol.K

   Total Enthalpy:               15.353 kcal/mol
   Total Entropy:                58.378  cal/mol.K
 Total job time:  214.77s(wall), 1658.74s(cpu)
        *  Thank you very much for using Q-Chem.  Have a nice day.  *
