 Q-Chem 5.4, Q-Chem, Inc., Pleasanton, CA (2021)
 Q-Chem 5.4.1 for Intel X86 EM64T Linux

User input:
--------------------------------------------------------------
$molecule
-1 1
C        -0.7265491958   -0.6895171733    0.3919701437
O        -0.9301705607   -1.6584074370    1.1676260891
O        -1.2842190230   -0.4549864869   -0.7106890305
H         0.0441711796    0.0533239972    0.7226658978
$end

$rem
BASIS = 6-311++G(2df,2p)
GUI = 2
JOB_TYPE = Optimization
METHOD = wB97M-V
SCF_ALGORITHM = DIIS_GDM
MAX_SCF_CYCLES = 400
GEOM_OPT_MAX_CYCLES = 150
SCF_CONVERGENCE = 7
THRESH = 12
Solvent_method = SMD
$end
--------------------------------------------------------------

   11    -189.3368583045      3.49e-08  Convergence criterion met
 Total energy in the final basis set =     -189.3302832029
   12    -189.3369809253      2.20e-08  Convergence criterion met
 Total energy in the final basis set =     -189.3304008481
   12    -189.3370344021      2.10e-08  Convergence criterion met
 Total energy in the final basis set =     -189.3304380462
   12    -189.3370352492      2.12e-08  Convergence criterion met
 Total energy in the final basis set =     -189.3304387348

             Standard Nuclear Orientation (Angstroms)
    I     Atom           X                Y                Z
 ----------------------------------------------------------------
    1      C      -0.7212776201    -0.6844206214     0.3942392435
    2      O      -0.9322206661    -1.6557444258     1.1615529529
    3      O      -1.2841758533    -0.4595739646    -0.7055055193
    4      H       0.0409065396     0.0501519118     0.7212864230
 ----------------------------------------------------------------

   12    -189.3370363971      2.13e-08  Convergence criterion met
 Total energy in the final basis set =     -189.3304397324
 Final energy is   -189.330439732427
 **  OPTIMIZATION CONVERGED  **

                    Orbital Energies (a.u.)
 --------------------------------------------------------------

 Alpha MOs
 -- Occupied --
-19.2839 -19.2838 -10.4308  -1.1622  -1.0744  -0.6673  -0.5650  -0.5291
 -0.5110  -0.3702  -0.3620  -0.3569

          Ground-State Mulliken Net Atomic Charges

     Atom                 Charge (a.u.)
  ----------------------------------------
      1 C                     0.200906
      2 O                    -0.666186
      3 O                    -0.666586
      4 H                     0.131866
  ----------------------------------------
  Sum of atomic charges =    -1.000000

                    Cartesian Multipole Moments
 -----------------------------------------------------------------
    Charge (ESU x 10^10)
                -4.8032
    Dipole Moment (Debye)
         X       6.5397      Y       6.2527      Z      -0.5720
       Tot       9.0659
    Quadrupole Moments (Debye-Ang)
        XX     -27.5612     XY      -7.1076     YY     -29.6648
        XZ      -0.4250     YZ       5.7961     ZZ     -26.4270

 Total job time:  43.52s(wall), 335.14s(cpu)
        *  Thank you very much for using Q-Chem.  Have a nice day.  *
