 Q-Chem 5.4, Q-Chem, Inc., Pleasanton, CA (2021)
 Q-Chem 5.4.1 for Intel X86 EM64T Linux

User input:
--------------------------------------------------------------
$molecule
-1 1
O        -0.7700752962    1.0095248173   -0.0901959350
C        -0.3608196099   -0.2115914739    0.4922317158
O        -1.0496930004   -1.3042071768   -0.0673185286
C         1.1546408297   -0.3521732406    0.2396058149
O         1.8571576590    0.5647537115    0.7328913092
O         1.5662840877   -1.3426908188   -0.4048193267
H        -1.6025330528    1.2738191661    0.3164522571
H        -1.9354580049   -1.3186989432    0.3121775248
H        -0.5354792121   -0.1788818416    1.5697029686
$end

$rem
BASIS = def2-TZVPPD
JOB_TYPE = SP
METHOD = wB97M-V
SCF_ALGORITHM = DIIS_GDM
MAX_SCF_CYCLES = 400
SCF_CONVERGENCE = 7
THRESH = 12
Solvent_method = SMD
$end
--------------------------------------------------------------

             Standard Nuclear Orientation (Angstroms)
    I     Atom           X                Y                Z
 ----------------------------------------------------------------
    1      O      -0.7700752962     1.0095248173    -0.0901959350
    2      C      -0.3608196099    -0.2115914739     0.4922317158
    3      O      -1.0496930004    -1.3042071768    -0.0673185286
    4      C       1.1546408297    -0.3521732406     0.2396058149
    5      O       1.8571576590     0.5647537115     0.7328913092
    6      O       1.5662840877    -1.3426908188    -0.4048193267
    7      H      -1.6025330528     1.2738191661     0.3164522571
    8      H      -1.9354580049    -1.3186989432     0.3121775248
    9      H      -0.5354792121    -0.1788818416     1.5697029686
 ----------------------------------------------------------------

   14    -379.1529308112      7.41e-08  Convergence criterion met
 Total energy in the final basis set =     -379.1462554360

                    Orbital Energies (a.u.)
 --------------------------------------------------------------

 Alpha MOs
 -- Occupied --
-19.3393 -19.3381 -19.2844 -19.2819 -10.4379 -10.4369  -1.1985  -1.1605
 -1.1285  -1.0764  -0.8120  -0.6455  -0.6367  -0.6320  -0.5749  -0.5282
 -0.5090  -0.4970  -0.4876  -0.4123  -0.4080  -0.3694  -0.3590  -0.3565

          Ground-State Mulliken Net Atomic Charges

     Atom                 Charge (a.u.)
  ----------------------------------------
      1 O                    -0.456514
      2 C                     0.318240
      3 O                    -0.467181
      4 C                     0.522436
      5 O                    -0.832212
      6 O                    -0.820781
      7 H                     0.186524
      8 H                     0.193863
      9 H                     0.355624
  ----------------------------------------
  Sum of atomic charges =    -1.000000

                    Cartesian Multipole Moments
 -----------------------------------------------------------------
    Charge (ESU x 10^10)
                -4.8032
    Dipole Moment (Debye)
         X     -12.0684      Y       2.2631      Z       2.6093
       Tot      12.5530
    Quadrupole Moments (Debye-Ang)
        XX     -47.3381     XY       1.7438     YY     -47.4074
        XZ      -6.0219     YZ      -4.5861     ZZ     -37.9881

 Total job time:  166.10s(wall), 658.89s(cpu)
        *  Thank you very much for using Q-Chem.  Have a nice day.  *
