 Q-Chem 5.4, Q-Chem, Inc., Pleasanton, CA (2021)
 Q-Chem 5.4.1 for Intel X86 EM64T Linux

User input:
--------------------------------------------------------------
$molecule
0 3
O        -0.3317834170   -1.3242649916    1.9105303637
O        -0.8326618675   -1.0676328410    3.1234569566
H         0.6669518667   -0.4500523921    1.8349800192
H        -1.4718823074   -0.3419671601    2.9975794665
O         1.3524206528    0.3637853199    2.0761915064
O         0.9713729643    0.8327487220    3.1930183628
$end

$rem
BASIS = 6-311++G(2df,2p)
GUI = 2
JOB_TYPE = Frequency
METHOD = wB97M-V
SOLVENT_METHOD = SMD
SCF_ALGORITHM = DIIS_GDM
MAX_SCF_CYCLES = 400
SCF_CONVERGENCE = 7
THRESH = 12
UNRESTRICTED = 1
SYMMETRY_IGNORE = 1
$end
--------------------------------------------------------------

   26    -301.8531587981      3.58e-08  Convergence criterion met
 Total energy in the final basis set =     -301.8518858622
   22    -301.8531585165      5.87e-08  Convergence criterion met
 Total energy in the final basis set =     -301.8518858190
   22    -301.8531588385      6.43e-08  Convergence criterion met
 Total energy in the final basis set =     -301.8518856644
   22    -301.8531582288      5.96e-08  Convergence criterion met
 Total energy in the final basis set =     -301.8518856361
   22    -301.8531590599      6.03e-08  Convergence criterion met
 Total energy in the final basis set =     -301.8518857800
   22    -301.8531585199      6.30e-08  Convergence criterion met
 Total energy in the final basis set =     -301.8518852987
   22    -301.8531580147      5.82e-08  Convergence criterion met
 Total energy in the final basis set =     -301.8518853638
   22    -301.8531589107      6.15e-08  Convergence criterion met
 Total energy in the final basis set =     -301.8518852823
   22    -301.8531577827      6.52e-08  Convergence criterion met
 Total energy in the final basis set =     -301.8518852242
   22    -301.8531587273      6.02e-08  Convergence criterion met
 Total energy in the final basis set =     -301.8518856086
   22    -301.8531586469      6.23e-08  Convergence criterion met
 Total energy in the final basis set =     -301.8518858939
   22    -301.8531587143      6.24e-08  Convergence criterion met
 Total energy in the final basis set =     -301.8518857914
   22    -301.8531585157      5.80e-08  Convergence criterion met
 Total energy in the final basis set =     -301.8518855665
   22    -301.8531581496      6.51e-08  Convergence criterion met
 Total energy in the final basis set =     -301.8518851972
   22    -301.8531580663      5.66e-08  Convergence criterion met
 Total energy in the final basis set =     -301.8518851468

                    Orbital Energies (a.u.)
 --------------------------------------------------------------

 Alpha MOs
 -- Occupied --
-19.4696 -19.4562 -19.4441 -19.4191  -1.3758  -1.3270  -1.0226  -0.9766
 -0.7238  -0.6739  -0.6363  -0.6289  -0.5980  -0.5854  -0.4625  -0.4270
 -0.4067  -0.3826

 Beta MOs
 -- Occupied --
-19.4527 -19.4468 -19.4207 -19.4063  -1.3392  -1.3048  -0.9921  -0.9255
 -0.6940  -0.6532  -0.5963  -0.5841  -0.5435  -0.5190  -0.4084  -0.3755

          Ground-State Mulliken Net Atomic Charges

     Atom                 Charge (a.u.)    Spin (a.u.)
  --------------------------------------------------------
      1 O                    -0.369781       0.430988
      2 O                    -0.079083       0.283446
      3 H                     0.415093      -0.030654
      4 H                     0.338121      -0.007002
      5 O                    -0.154806       0.524595
      6 O                    -0.149545       0.798628
  --------------------------------------------------------
  Sum of atomic charges =    -0.000000

                    Cartesian Multipole Moments
 -----------------------------------------------------------------
    Charge (ESU x 10^10)
                -0.0000
    Dipole Moment (Debye)
         X      -2.3307      Y       0.6974      Z      -0.3506
       Tot       2.4579
    Quadrupole Moments (Debye-Ang)
        XX     -20.2481     XY      -2.3008     YY     -26.9631
        XZ      -7.8495     YZ       1.2962     ZZ     -25.4239

             Standard Nuclear Orientation (Angstroms)
    I     Atom           X                Y                Z
 ----------------------------------------------------------------
    1      O      -0.3317834170    -1.3242649916     1.9105303637
    2      O      -0.8326618675    -1.0676328410     3.1234569566
    3      H       0.6669518667    -0.4500523921     1.8349800192
    4      H      -1.4718823074    -0.3419671601     2.9975794665
    5      O       1.3524206528     0.3637853199     2.0761915064
    6      O       0.9713729643     0.8327487220     3.1930183628
 ----------------------------------------------------------------

 Frequency:     -1894.65                 124.37                 183.25
 Force Cnst:      2.6767                 0.0843                 0.1290
 Red. Mass:       1.2656                 9.2457                 6.5183
 IR Intens:    11529.518                 16.897                 16.637
 Frequency:       348.65                 386.51                 699.56
 Force Cnst:      0.0812                 1.1072                 3.6940
 Red. Mass:       1.1334                12.5786                12.8113
 IR Intens:      197.170                  1.322                445.150
 Frequency:       821.87                1256.80                1434.64
 Force Cnst:      0.4214                 7.9363                 5.3473
 Red. Mass:       1.0589                 8.5278                 4.4096
 IR Intens:      171.178                  6.953                 98.985
 Frequency:      1447.58                1674.50                3666.99
 Force Cnst:      1.4055                 1.7771                 8.4632
 Red. Mass:       1.1384                 1.0757                 1.0682
 IR Intens:       81.220                134.428                277.448

 STANDARD THERMODYNAMIC QUANTITIES AT   298.15 K  AND     1.00 ATM

   This Molecule has  1 Imaginary Frequencies
   Zero point vibrational energy:       17.219 kcal/mol

   Atom    1 Element O  Has Mass   15.99491
   Atom    2 Element O  Has Mass   15.99491
   Atom    3 Element H  Has Mass    1.00783
   Atom    4 Element H  Has Mass    1.00783
   Atom    5 Element O  Has Mass   15.99491
   Atom    6 Element O  Has Mass   15.99491
   Molecular Mass:    65.995300 amu
   Principal axes and moments of inertia in amu*Bohr^2:
                             1           2           3
    Eigenvalues --      105.01522   367.66961   466.92764
          X               0.70824    -0.35098    -0.61254
          Y               0.70504     0.30692     0.63932
          Z               0.03639     0.88465    -0.46482
   Rotational Symmetry Number is   1
   The Molecule is an Asymmetric Top
   Translational Enthalpy:        0.889 kcal/mol
   Rotational Enthalpy:           0.889 kcal/mol
   Vibrational Enthalpy:         18.584 kcal/mol
   gas constant (RT):             0.592 kcal/mol
   Translational Entropy:        38.479  cal/mol.K
   Rotational Entropy:           24.403  cal/mol.K
   Vibrational Entropy:           8.077  cal/mol.K

   Total Enthalpy:               20.954 kcal/mol
   Total Entropy:                70.960  cal/mol.K
 Total job time:  1053.27s(wall), 8092.77s(cpu)
        *  Thank you very much for using Q-Chem.  Have a nice day.  *
