 Q-Chem 5.4, Q-Chem, Inc., Pleasanton, CA (2021)
 Q-Chem 5.4.1 for Intel X86 EM64T Linux

User input:
--------------------------------------------------------------
$molecule
0 3
O   -0.4101617   -1.3341321    2.2650579
O   -1.3141883   -0.5993390    2.8570517
H    0.8572054   -0.2059478    1.9271268
H   -2.0541441   -1.1995919    3.0727755
O    1.5562534    0.4990987    1.8994690
O    1.6915472    0.9010091    3.1402095
****
O	-2.0245201	-0.137658	2.1995546
O	-1.3699236	-1.0823344	3.0470271
H	-1.3478847	0.0479546	1.5334684
H	-0.9503588	-0.5133244	3.7071003
O	0.8743236	0.8756377	1.9275633
O	0.8315265	1.0829539	3.1051881
$end

$rem
BASIS = 6-311++G(2df,2p)
GUI = 2
JOB_TYPE = FSM
FSM_MODE = 2
METHOD = wB97M-v
MAX_SCF_CYCLES = 120
SOLVENT_METHOD = SMD
FSM_NGRAD = 6
FSM_NNODE = 20
UNRESTRICTED = 1
SCF_CONVERGENCE = 7
THRESH = 12
SCF_ALGORITHM = DIIS_GDM
$end

--------------------------------------------------------------

   22    -301.8655151030      7.03e-08  Convergence criterion met
 Total energy in the final basis set =     -301.8641168278
   15    -301.9111279729      7.29e-08  Convergence criterion met
 Total energy in the final basis set =     -301.9096911890
   24    -301.8613407644      3.48e-08  Convergence criterion met
 Total energy in the final basis set =     -301.8598973160
   24    -301.8643384780      7.15e-08  Convergence criterion met
 Total energy in the final basis set =     -301.8629194031
   16    -301.9092538614      6.40e-08  Convergence criterion met
 Total energy in the final basis set =     -301.9077745721
   15    -301.9079213465      8.54e-08  Convergence criterion met
 Total energy in the final basis set =     -301.9064835290
   17    -301.9079235797      4.55e-08  Convergence criterion met
 Total energy in the final basis set =     -301.9064536336
   26    -301.8600830884      1.50e-08  Convergence criterion met
 Total job time:  1516.82s(wall), 11710.50s(cpu)
        *  Thank you very much for using Q-Chem.  Have a nice day.  *
 Q-Chem 5.4, Q-Chem, Inc., Pleasanton, CA (2021)
 Q-Chem 5.4.1 for Intel X86 EM64T Linux

User input:
--------------------------------------------------------------

$rem
JOBTYPE = ts
SCF_GUESS = read
GEOM_OPT_HESSIAN = read
MAX_SCF_CYCLES = 350
GEOM_OPT_DMAX = 60
GEOM_OPT_MAX_CYCLES = 250
METHOD = wB97M-v
BASIS = 6-311++G(2df,2p)
UNRESTRICTED = 1
SOLVENT_METHOD = SMD
SCF_CONVERGENCE = 7
THRESH = 12
SCF_ALGORITHM = DIIS_GDM
$end

$molecule
read
$end

--------------------------------------------------------------

   20    -301.8531567744      5.66e-08  Convergence criterion met
 Total energy in the final basis set =     -301.8518815088
   22    -301.8531583995      5.46e-08  Convergence criterion met
 Total energy in the final basis set =     -301.8518853244
   22    -301.8531579597      6.29e-08  Convergence criterion met
 Total energy in the final basis set =     -301.8518856572
   22    -301.8531556766      8.22e-08  Convergence criterion met
 Total energy in the final basis set =     -301.8518802093
   20    -301.8531586471      3.28e-08  Convergence criterion met
 Total energy in the final basis set =     -301.8518857885
   20    -301.8531576815      9.07e-08  Convergence criterion met
 Total energy in the final basis set =     -301.8518850118

             Standard Nuclear Orientation (Angstroms)
    I     Atom           X                Y                Z
 ----------------------------------------------------------------
    1      O      -0.3317834170    -1.3242649916     1.9105303637
    2      O      -0.8326618675    -1.0676328410     3.1234569566
    3      H       0.6669518667    -0.4500523921     1.8349800192
    4      H      -1.4718823074    -0.3419671601     2.9975794665
    5      O       1.3524206528     0.3637853199     2.0761915064
    6      O       0.9713729643     0.8327487220     3.1930183628
 ----------------------------------------------------------------

   22    -301.8531587981      6.42e-08  Convergence criterion met
 Total energy in the final basis set =     -301.8518858622
 Final energy is   -301.851885862190
 **  OPTIMIZATION CONVERGED  **

                    Orbital Energies (a.u.)
 --------------------------------------------------------------

 Alpha MOs
 -- Occupied --
-19.4695 -19.4563 -19.4440 -19.4193  -1.3750  -1.3271  -1.0228  -0.9767
 -0.7236  -0.6740  -0.6359  -0.6286  -0.5981  -0.5853  -0.4626  -0.4271
 -0.4068  -0.3827

 Beta MOs
 -- Occupied --
-19.4525 -19.4470 -19.4206 -19.4064  -1.3386  -1.3048  -0.9922  -0.9256
 -0.6940  -0.6532  -0.5961  -0.5842  -0.5431  -0.5189  -0.4085  -0.3756

          Ground-State Mulliken Net Atomic Charges

     Atom                 Charge (a.u.)    Spin (a.u.)
  --------------------------------------------------------
      1 O                    -0.369306       0.431598
      2 O                    -0.078491       0.284057
      3 H                     0.415211      -0.030547
      4 H                     0.338158      -0.007013
      5 O                    -0.155541       0.523813
      6 O                    -0.150030       0.798091
  --------------------------------------------------------
  Sum of atomic charges =     0.000000

                    Cartesian Multipole Moments
 -----------------------------------------------------------------
    Charge (ESU x 10^10)
                 0.0000
    Dipole Moment (Debye)
         X      -2.3412      Y       0.6876      Z      -0.3514
       Tot       2.4653
    Quadrupole Moments (Debye-Ang)
        XX     -20.2557     XY      -2.3018     YY     -26.9584
        XZ      -7.8774     YZ       1.2728     ZZ     -25.4271

 Total job time:  1587.80s(wall), 12289.85s(cpu)
        *  Thank you very much for using Q-Chem.  Have a nice day.  *
