 Q-Chem 5.4, Q-Chem, Inc., Pleasanton, CA (2021)
 Q-Chem 5.4.1 for Intel X86 EM64T Linux

User input:
--------------------------------------------------------------
$molecule
-1 1
O        -0.7700752962    1.0095248173   -0.0901959350
C        -0.3608196099   -0.2115914739    0.4922317158
O        -1.0496930004   -1.3042071768   -0.0673185286
C         1.1546408297   -0.3521732406    0.2396058149
O         1.8571576590    0.5647537115    0.7328913092
O         1.5662840877   -1.3426908188   -0.4048193267
H        -1.6025330528    1.2738191661    0.3164522571
H        -1.9354580049   -1.3186989432    0.3121775248
H        -0.5354792121   -0.1788818416    1.5697029686
$end

$rem
BASIS = 6-311++G(3df,2p)
JOB_TYPE = SP
METHOD = wB97M-V
SCF_ALGORITHM = DIIS_GDM
MAX_SCF_CYCLES = 400
SCF_CONVERGENCE = 7
THRESH = 12
Solvent_method = SMD
$end
--------------------------------------------------------------

             Standard Nuclear Orientation (Angstroms)
    I     Atom           X                Y                Z
 ----------------------------------------------------------------
    1      O      -0.7700752962     1.0095248173    -0.0901959350
    2      C      -0.3608196099    -0.2115914739     0.4922317158
    3      O      -1.0496930004    -1.3042071768    -0.0673185286
    4      C       1.1546408297    -0.3521732406     0.2396058149
    5      O       1.8571576590     0.5647537115     0.7328913092
    6      O       1.5662840877    -1.3426908188    -0.4048193267
    7      H      -1.6025330528     1.2738191661     0.3164522571
    8      H      -1.9354580049    -1.3186989432     0.3121775248
    9      H      -0.5354792121    -0.1788818416     1.5697029686
 ----------------------------------------------------------------

   14    -379.1317850442      6.83e-08  Convergence criterion met
 Total energy in the final basis set =     -379.1251096690

                    Orbital Energies (a.u.)
 --------------------------------------------------------------

 Alpha MOs
 -- Occupied --
-19.3411 -19.3398 -19.2864 -19.2839 -10.4385 -10.4372  -1.2003  -1.1621
 -1.1304  -1.0779  -0.8135  -0.6467  -0.6381  -0.6334  -0.5762  -0.5295
 -0.5102  -0.4984  -0.4890  -0.4136  -0.4093  -0.3707  -0.3603  -0.3577

          Ground-State Mulliken Net Atomic Charges

     Atom                 Charge (a.u.)
  ----------------------------------------
      1 O                    -0.690054
      2 C                     0.411756
      3 O                    -0.697826
      4 C                     0.812349
      5 O                    -0.866393
      6 O                    -0.855816
      7 H                     0.316108
      8 H                     0.312222
      9 H                     0.257653
  ----------------------------------------
  Sum of atomic charges =    -1.000000

                    Cartesian Multipole Moments
 -----------------------------------------------------------------
    Charge (ESU x 10^10)
                -4.8032
    Dipole Moment (Debye)
         X     -12.0883      Y       2.2640      Z       2.6412
       Tot      12.5789
    Quadrupole Moments (Debye-Ang)
        XX     -47.3773     XY       1.7332     YY     -47.5350
        XZ      -6.0812     YZ      -4.6186     ZZ     -38.0082

 Total job time:  109.53s(wall), 377.84s(cpu)
        *  Thank you very much for using Q-Chem.  Have a nice day.  *
