 Q-Chem 5.4, Q-Chem, Inc., Pleasanton, CA (2021)
 Q-Chem 5.4.1 for Intel X86 EM64T Linux

User input:
--------------------------------------------------------------
$molecule
0 1
H         0.9860017187   -0.6082515152   -0.5134500749
O         0.7113545294    0.0695800667    0.1191259678
O        -0.7113545438   -0.0695800699    0.1191259814
H        -0.9860017042    0.6082515184   -0.5134500766
$end

$rem
BASIS = 6-311++G(2df,2p)
GUI = 2
JOB_TYPE = Frequency
METHOD = wB97M-V
SOLVENT_METHOD = SMD
SCF_ALGORITHM = DIIS_GDM
MAX_SCF_CYCLES = 400
SCF_CONVERGENCE = 7
THRESH = 12
SYMMETRY_IGNORE = 1
$end
--------------------------------------------------------------

   12    -151.5739038461      2.92e-08  Convergence criterion met
 Total energy in the final basis set =     -151.5717336984
   11    -151.5739041687      2.47e-08  Convergence criterion met
 Total energy in the final basis set =     -151.5717334540
   11    -151.5739031536      1.97e-08  Convergence criterion met
 Total energy in the final basis set =     -151.5717335726
   11    -151.5739028909      2.48e-08  Convergence criterion met
 Total energy in the final basis set =     -151.5717332504
   11    -151.5739038801      1.99e-08  Convergence criterion met
 Total energy in the final basis set =     -151.5717332249
   11    -151.5739029762      2.00e-08  Convergence criterion met
 Total energy in the final basis set =     -151.5717333335
   11    -151.5739039221      1.97e-08  Convergence criterion met
 Total energy in the final basis set =     -151.5717332691
   11    -151.5739025933      1.88e-08  Convergence criterion met
 Total energy in the final basis set =     -151.5717332037
   11    -151.5739029107      2.10e-08  Convergence criterion met
 Total energy in the final basis set =     -151.5717332683
   10    -151.5739031536      6.52e-08  Convergence criterion met
 Total energy in the final basis set =     -151.5717335726
   11    -151.5739041687      1.96e-08  Convergence criterion met
 Total energy in the final basis set =     -151.5717334541
   11    -151.5739038800      2.44e-08  Convergence criterion met
 Total energy in the final basis set =     -151.5717332249
   11    -151.5739028909      2.06e-08  Convergence criterion met
 Total energy in the final basis set =     -151.5717332504
   10    -151.5739029762      5.78e-08  Convergence criterion met
 Total energy in the final basis set =     -151.5717333335
   11    -151.5739039221      1.97e-08  Convergence criterion met
 Total energy in the final basis set =     -151.5717332691

                    Orbital Energies (a.u.)
 --------------------------------------------------------------

 Alpha MOs
 -- Occupied --
-19.3936 -19.3935  -1.2604  -1.0257  -0.6576  -0.6034  -0.5473  -0.4212
 -0.4142

          Ground-State Mulliken Net Atomic Charges

     Atom                 Charge (a.u.)
  ----------------------------------------
      1 H                     0.340275
      2 O                    -0.340322
      3 O                    -0.340429
      4 H                     0.340476
  ----------------------------------------
  Sum of atomic charges =     0.000000

                    Cartesian Multipole Moments
 -----------------------------------------------------------------
    Charge (ESU x 10^10)
                -0.0000
    Dipole Moment (Debye)
         X      -0.0002      Y      -0.0004      Z      -2.8154
       Tot       2.8154
    Quadrupole Moments (Debye-Ang)
        XX     -10.8706     XY      -3.1902     YY     -11.1080
        XZ       0.0019     YZ      -0.0015     ZZ     -11.7095

             Standard Nuclear Orientation (Angstroms)
    I     Atom           X                Y                Z
 ----------------------------------------------------------------
    1      H       0.9860017187    -0.6082515152    -0.5134500749
    2      O       0.7113545294     0.0695800667     0.1191259678
    3      O      -0.7113545438    -0.0695800699     0.1191259814
    4      H      -0.9860017042     0.6082515184    -0.5134500766
 ----------------------------------------------------------------

 Frequency:       364.88                1017.71                1401.98
 Force Cnst:      0.0852                 9.2288                 1.3056
 Red. Mass:       1.0860                15.1234                 1.1274
 IR Intens:      240.840                  0.433                147.619
 Frequency:      1421.76                3777.20                3785.05
 Force Cnst:      1.2804                 8.9757                 9.0287
 Red. Mass:       1.0751                 1.0678                 1.0696
 IR Intens:        0.458                151.500                 84.171

 STANDARD THERMODYNAMIC QUANTITIES AT   298.15 K  AND     1.00 ATM

   This Molecule has  0 Imaginary Frequencies
   Zero point vibrational energy:       16.824 kcal/mol

   Atom    1 Element H  Has Mass    1.00783
   Atom    2 Element O  Has Mass   15.99491
   Atom    3 Element O  Has Mass   15.99491
   Atom    4 Element H  Has Mass    1.00783
   Molecular Mass:    34.005480 amu
   Principal axes and moments of inertia in amu*Bohr^2:
                             1           2           3
    Eigenvalues --        5.89669    67.54373    68.02125
          X               0.99976    -0.02170     0.00000
          Y               0.02170     0.99976     0.00000
          Z              -0.00000    -0.00000     1.00000
   Rotational Symmetry Number is   1
   The Molecule is an Asymmetric Top
   Translational Enthalpy:        0.889 kcal/mol
   Rotational Enthalpy:           0.889 kcal/mol
   Vibrational Enthalpy:         17.071 kcal/mol
   gas constant (RT):             0.592 kcal/mol
   Translational Entropy:        36.503  cal/mol.K
   Rotational Entropy:           17.944  cal/mol.K
   Vibrational Entropy:           1.223  cal/mol.K

   Total Enthalpy:               19.441 kcal/mol
   Total Entropy:                55.670  cal/mol.K
 Total job time:  181.88s(wall), 1374.95s(cpu)
        *  Thank you very much for using Q-Chem.  Have a nice day.  *
