 Q-Chem 5.4, Q-Chem, Inc., Pleasanton, CA (2021)
 Q-Chem 5.4.1 for Intel X86 EM64T Linux

User input:
--------------------------------------------------------------
$molecule
0 1
H         0.9831099676   -0.6120787622   -0.5135772400
O         0.7141925417    0.0776813237    0.1192531471
O        -0.7141925217   -0.0776813270    0.1192531353
H        -0.9831099875    0.6120787654   -0.5135772447
$end

$rem
BASIS = 6-311++G(2df,2p)
GUI = 2
JOB_TYPE = Optimization
METHOD = wB97M-V
SCF_ALGORITHM = DIIS_GDM
MAX_SCF_CYCLES = 400
GEOM_OPT_MAX_CYCLES = 150
SCF_CONVERGENCE = 7
THRESH = 12
Solvent_method = SMD
$end
--------------------------------------------------------------

   12    -151.5737489581      3.29e-08  Convergence criterion met
 Total energy in the final basis set =     -151.5715773425
   11    -151.5738889936      4.01e-08  Convergence criterion met
 Total energy in the final basis set =     -151.5717167641
   10    -151.5738942312      5.11e-08  Convergence criterion met
 Total energy in the final basis set =     -151.5717272055
   11    -151.5739028677      3.36e-08  Convergence criterion met
 Total energy in the final basis set =     -151.5717334860

             Standard Nuclear Orientation (Angstroms)
    I     Atom           X                Y                Z
 ----------------------------------------------------------------
    1      H       0.9860017187    -0.6082515152    -0.5134500749
    2      O       0.7113545294     0.0695800667     0.1191259678
    3      O      -0.7113545438    -0.0695800699     0.1191259814
    4      H      -0.9860017042     0.6082515184    -0.5134500766
 ----------------------------------------------------------------

   10    -151.5739038452      5.02e-08  Convergence criterion met
 Total energy in the final basis set =     -151.5717336975
 Final energy is   -151.571733697479
 **  OPTIMIZATION CONVERGED  **

                    Orbital Energies (a.u.)
 --------------------------------------------------------------

 Alpha MOs
 -- Occupied --
-19.3935 -19.3935  -1.2604  -1.0259  -0.6577  -0.6034  -0.5473  -0.4212
 -0.4142

          Ground-State Mulliken Net Atomic Charges

     Atom                 Charge (a.u.)
  ----------------------------------------
      1 H                     0.340293
      2 O                    -0.340292
      3 O                    -0.340293
      4 H                     0.340293
  ----------------------------------------
  Sum of atomic charges =     0.000000

                    Cartesian Multipole Moments
 -----------------------------------------------------------------
    Charge (ESU x 10^10)
                -0.0000
    Dipole Moment (Debye)
         X       0.0000      Y       0.0000      Z      -2.8135
       Tot       2.8135
    Quadrupole Moments (Debye-Ang)
        XX     -10.8696     XY      -3.1908     YY     -11.1068
        XZ       0.0000     YZ      -0.0000     ZZ     -11.7117

 Total job time:  32.90s(wall), 253.61s(cpu)
        *  Thank you very much for using Q-Chem.  Have a nice day.  *
