 Q-Chem 5.4, Q-Chem, Inc., Pleasanton, CA (2021)
 Q-Chem 5.4.1 for Intel X86 EM64T Linux

User input:
--------------------------------------------------------------
$molecule
-1 2
C         0.6332016938    0.2492218888    0.7584201423
O         1.4025855345   -0.2466265649    1.5928966321
H        -1.9375709960   -1.0123331655   -0.8866207339
C        -0.5876356319   -0.6521105713    0.4044916578
O        -0.8569532521   -1.6133086963    1.1906387653
O        -1.1874161180   -0.4200235349   -0.6924266891
O         0.6788790895    1.3139223991    0.1285257991
O        -1.4798178908    1.1120009332    2.5219901422
O        -2.4778756125    0.8597842175    1.6870392901
H        -1.6207131163   -2.1609506057    0.9312915941
$end

$rem
BASIS = 6-311++G(3df,2p)
JOB_TYPE = SP
METHOD = wB97M-V
SCF_ALGORITHM = DIIS_GDM
MAX_SCF_CYCLES = 400
SCF_CONVERGENCE = 7
THRESH = 12
Solvent_method = SMD
$end
--------------------------------------------------------------

             Standard Nuclear Orientation (Angstroms)
    I     Atom           X                Y                Z
 ----------------------------------------------------------------
    1      C       0.6332016938     0.2492218888     0.7584201423
    2      O       1.4025855345    -0.2466265649     1.5928966321
    3      H      -1.9375709960    -1.0123331655    -0.8866207339
    4      C      -0.5876356319    -0.6521105713     0.4044916578
    5      O      -0.8569532521    -1.6133086963     1.1906387653
    6      O      -1.1874161180    -0.4200235349    -0.6924266891
    7      O       0.6788790895     1.3139223991     0.1285257991
    8      O      -1.4798178908     1.1120009332     2.5219901422
    9      O      -2.4778756125     0.8597842175     1.6870392901
   10      H      -1.6207131163    -2.1609506057     0.9312915941
 ----------------------------------------------------------------

   28    -528.8475405314      9.35e-08  Convergence criterion met
 Total energy in the final basis set =     -528.8393905293

                    Orbital Energies (a.u.)
 --------------------------------------------------------------

 Alpha MOs
 -- Occupied --
-19.4379 -19.4375 -19.3377 -19.3374 -19.3065 -19.3064 -10.5491 -10.4745
 -1.3246  -1.2435  -1.2164  -1.1950  -1.1108  -0.8681  -0.8645  -0.7742
 -0.7108  -0.6370  -0.6298  -0.5743  -0.5543  -0.5415  -0.5359  -0.5240
 -0.5201  -0.5041  -0.4910  -0.3931  -0.3895  -0.3841  -0.3245  -0.2933

 Beta MOs
 -- Occupied --
-19.4379 -19.4375 -19.3233 -19.3231 -19.3066 -19.3064 -10.5491 -10.4745
 -1.3246  -1.2435  -1.1953  -1.1869  -1.1109  -0.8680  -0.8222  -0.7742
 -0.7107  -0.6365  -0.6298  -0.5742  -0.5543  -0.5401  -0.5330  -0.5073
 -0.4994  -0.4767  -0.4372  -0.3928  -0.3892  -0.3839  -0.2742

          Ground-State Mulliken Net Atomic Charges

     Atom                 Charge (a.u.)    Spin (a.u.)
  --------------------------------------------------------
      1 C                     0.952557      -0.001113
      2 O                    -0.807652      -0.001079
      3 H                     0.361461       0.000041
      4 C                     0.839973       0.000561
      5 O                    -0.471762       0.000918
      6 O                    -0.480472       0.000332
      7 O                    -0.809246       0.000355
      8 O                    -0.462998       0.503326
      9 O                    -0.482354       0.496758
     10 H                     0.360493      -0.000100
  --------------------------------------------------------
  Sum of atomic charges =    -1.000000

                    Cartesian Multipole Moments
 -----------------------------------------------------------------
    Charge (ESU x 10^10)
                -4.8032
    Dipole Moment (Debye)
         X      -2.3631      Y     -13.1096      Z     -13.1965
       Tot      18.7508
    Quadrupole Moments (Debye-Ang)
        XX     -61.1159     XY      18.7103     YY     -47.8777
        XZ      11.7205     YZ      -8.8322     ZZ     -74.5345

 Total job time:  301.48s(wall), 1197.21s(cpu)
        *  Thank you very much for using Q-Chem.  Have a nice day.  *
