 Q-Chem 5.4, Q-Chem, Inc., Pleasanton, CA (2021)
 Q-Chem 5.4.1 for Intel X86 EM64T Linux

User input:
--------------------------------------------------------------
$molecule
0 2
C         1.6339595570    0.6298880287   -1.7529351582
C         0.5047290790   -0.1586103868   -2.3877816017
O         0.9026161608   -1.5070129138   -2.3517700138
O         0.3279893345    0.3108408184   -3.7013313808
O         2.7586284754    0.6116984442   -2.5505421791
H         0.1186379270   -2.0574258864   -2.4581526708
H        -0.5554424583    0.0622694345   -3.9954950444
H         1.8278345278    0.2961245147   -0.7361703587
H        -0.4063339914   -0.0138652228   -1.8063718799
O         1.1172893180    2.0014340463   -1.6403479560
O         1.9600216742    2.7539882533   -0.9917959567
H         3.5300641960    0.8108456698   -2.0072477000
$end

$rem
BASIS = 6-311++G(2df,2p)
GUI = 2
JOB_TYPE = Frequency
METHOD = wB97M-V
SOLVENT_METHOD = SMD
SCF_ALGORITHM = DIIS_GDM
MAX_SCF_CYCLES = 400
SCF_CONVERGENCE = 7
THRESH = 12
$end
--------------------------------------------------------------

   21    -455.2563481680      4.40e-08  Convergence criterion met
 Total energy in the final basis set =     -455.2523650386
   18    -455.2563548059      7.14e-08  Convergence criterion met
 Total energy in the final basis set =     -455.2523641048
   18    -455.2563396029      5.98e-08  Convergence criterion met
 Total energy in the final basis set =     -455.2523640512
   18    -455.2563471931      9.29e-08  Convergence criterion met
 Total energy in the final basis set =     -455.2523643584
   18    -455.2563476948      6.15e-08  Convergence criterion met
 Total energy in the final basis set =     -455.2523642756
   18    -455.2563420281      5.93e-08  Convergence criterion met
 Total energy in the final basis set =     -455.2523638426
   18    -455.2563520159      6.39e-08  Convergence criterion met
 Total energy in the final basis set =     -455.2523639437
   18    -455.2563474090      6.50e-08  Convergence criterion met
 Total energy in the final basis set =     -455.2523647836
   18    -455.2563479814      4.42e-08  Convergence criterion met
 Total energy in the final basis set =     -455.2523648594
   18    -455.2563484115      6.90e-08  Convergence criterion met
 Total energy in the final basis set =     -455.2523643747
   18    -455.2563466256      5.13e-08  Convergence criterion met
 Total energy in the final basis set =     -455.2523644041
   18    -455.2563481594      5.14e-08  Convergence criterion met
 Total energy in the final basis set =     -455.2523650794
   18    -455.2563480856      5.08e-08  Convergence criterion met
 Total energy in the final basis set =     -455.2523649065
   18    -455.2563477726      5.15e-08  Convergence criterion met
 Total energy in the final basis set =     -455.2523646569
   18    -455.2563478659      5.09e-08  Convergence criterion met
 Total energy in the final basis set =     -455.2523647223

                    Orbital Energies (a.u.)
 --------------------------------------------------------------

 Alpha MOs
 -- Occupied --
-19.4638 -19.4230 -19.3651 -19.3510 -19.3506 -10.4626 -10.4566  -1.3505
 -1.2159  -1.1870  -1.1424  -1.0157  -0.8575  -0.7462  -0.7024  -0.6773
 -0.6348  -0.6333  -0.6266  -0.5927  -0.5637  -0.5113  -0.5047  -0.4612
 -0.4544  -0.4252  -0.4170  -0.4033  -0.4031

 Beta MOs
 -- Occupied --
-19.4538 -19.4039 -19.3650 -19.3510 -19.3505 -10.4629 -10.4566  -1.3249
 -1.2148  -1.1859  -1.1423  -0.9843  -0.8486  -0.7419  -0.6974  -0.6696
 -0.6309  -0.6193  -0.6125  -0.5562  -0.5454  -0.5105  -0.4895  -0.4561
 -0.4499  -0.4240  -0.4168  -0.3858

          Ground-State Mulliken Net Atomic Charges

     Atom                 Charge (a.u.)    Spin (a.u.)
  --------------------------------------------------------
      1 C                    -0.000275      -0.002396
      2 C                    -0.101709      -0.000920
      3 O                    -0.442956      -0.000045
      4 O                    -0.440286       0.002308
      5 O                    -0.408362       0.002605
      6 H                     0.342809      -0.000455
      7 H                     0.347908       0.000178
      8 H                     0.281230       0.005503
      9 H                     0.262086       0.000406
     10 O                     0.020603       0.306478
     11 O                    -0.219693       0.685913
     12 H                     0.358644       0.000424
  --------------------------------------------------------
  Sum of atomic charges =     0.000000

                    Cartesian Multipole Moments
 -----------------------------------------------------------------
    Charge (ESU x 10^10)
                 0.0000
    Dipole Moment (Debye)
         X      -3.4981      Y      -3.6679      Z       1.9369
       Tot       5.4260
    Quadrupole Moments (Debye-Ang)
        XX     -36.4218     XY       0.7029     YY     -50.4346
        XZ      15.8964     YZ       7.4054     ZZ     -51.0637

             Standard Nuclear Orientation (Angstroms)
    I     Atom           X                Y                Z
 ----------------------------------------------------------------
    1      C       1.6339595570     0.6298880287    -1.7529351582
    2      C       0.5047290790    -0.1586103868    -2.3877816017
    3      O       0.9026161608    -1.5070129138    -2.3517700138
    4      O       0.3279893345     0.3108408184    -3.7013313808
    5      O       2.7586284754     0.6116984442    -2.5505421791
    6      H       0.1186379270    -2.0574258864    -2.4581526708
    7      H      -0.5554424583     0.0622694345    -3.9954950444
    8      H       1.8278345278     0.2961245147    -0.7361703587
    9      H      -0.4063339914    -0.0138652228    -1.8063718799
   10      O       1.1172893180     2.0014340463    -1.6403479560
   11      O       1.9600216742     2.7539882533    -0.9917959567
   12      H       3.5300641960     0.8108456698    -2.0072477000
 ----------------------------------------------------------------

 Frequency:        74.29                  94.03                 193.36
 Force Cnst:      0.0303                 0.0465                 0.0375
 Red. Mass:       9.3058                 8.9310                 1.7024
 IR Intens:        5.173                  6.261                 80.361
 Frequency:       212.21                 263.66                 279.86
 Force Cnst:      0.0524                 0.0596                 0.1176
 Red. Mass:       1.9742                 1.4547                 2.5492
 IR Intens:       88.457                207.074                 48.587
 Frequency:       323.84                 374.96                 397.09
 Force Cnst:      0.0841                 0.3587                 0.4992
 Red. Mass:       1.3609                 4.3302                 5.3739
 IR Intens:      167.663                 43.054                 14.145
 Frequency:       573.62                 597.84                 742.75
 Force Cnst:      1.3856                 1.6975                 1.3801
 Red. Mass:       7.1475                 8.0610                 4.2459
 IR Intens:       66.512                 21.110                 64.885
 Frequency:       913.61                 933.14                1121.78
 Force Cnst:      2.5002                 1.6031                 2.2339
 Red. Mass:       5.0840                 3.1248                 3.0129
 IR Intens:      190.980                 86.639                185.274
 Frequency:      1197.80                1223.19                1231.74
 Force Cnst:      0.9701                 0.9526                 2.1605
 Red. Mass:       1.1476                 1.0806                 2.4169
 IR Intens:      202.562                 56.772                196.837
 Frequency:      1266.54                1291.15                1306.06
 Force Cnst:      5.2624                 2.7128                 1.8881
 Red. Mass:       5.5679                 2.7619                 1.8787
 IR Intens:       86.071                143.094                177.219
 Frequency:      1342.84                1421.01                1439.76
 Force Cnst:      1.3050                 1.6206                 1.7277
 Red. Mass:       1.2283                 1.3621                 1.4146
 IR Intens:       15.101                 21.289                 46.721
 Frequency:      1537.12                3096.64                3136.03
 Force Cnst:      2.9822                 6.1459                 6.3060
 Red. Mass:       2.1422                 1.0878                 1.0883
 IR Intens:        7.934                 32.114                 15.494
 Frequency:      3820.29                3826.28                3828.05
 Force Cnst:      9.1710                 9.2036                 9.2128
 Red. Mass:       1.0665                 1.0670                 1.0671
 IR Intens:      211.020                 91.937                198.640

 STANDARD THERMODYNAMIC QUANTITIES AT   298.15 K  AND     1.00 ATM

   This Molecule has  0 Imaginary Frequencies
   Zero point vibrational energy:       54.410 kcal/mol

   Atom    1 Element C  Has Mass   12.00000
   Atom    2 Element C  Has Mass   12.00000
   Atom    3 Element O  Has Mass   15.99491
   Atom    4 Element O  Has Mass   15.99491
   Atom    5 Element O  Has Mass   15.99491
   Atom    6 Element H  Has Mass    1.00783
   Atom    7 Element H  Has Mass    1.00783
   Atom    8 Element H  Has Mass    1.00783
   Atom    9 Element H  Has Mass    1.00783
   Atom   10 Element O  Has Mass   15.99491
   Atom   11 Element O  Has Mass   15.99491
   Atom   12 Element H  Has Mass    1.00783
   Molecular Mass:   109.013700 amu
   Principal axes and moments of inertia in amu*Bohr^2:
                             1           2           3
    Eigenvalues --      366.81118  1015.55869  1109.47109
          X               0.34150     0.84364    -0.41431
          Y               0.84501    -0.46859    -0.25765
          Z               0.41150     0.26211     0.87291
   Rotational Symmetry Number is   1
   The Molecule is an Asymmetric Top
   Translational Enthalpy:        0.889 kcal/mol
   Rotational Enthalpy:           0.889 kcal/mol
   Vibrational Enthalpy:         57.710 kcal/mol
   gas constant (RT):             0.592 kcal/mol
   Translational Entropy:        39.975  cal/mol.K
   Rotational Entropy:           27.515  cal/mol.K
   Vibrational Entropy:          20.114  cal/mol.K

   Total Enthalpy:               60.080 kcal/mol
   Total Entropy:                87.605  cal/mol.K
 Total job time:  8032.53s(wall), 62053.26s(cpu)
        *  Thank you very much for using Q-Chem.  Have a nice day.  *
