 Q-Chem 5.4, Q-Chem, Inc., Pleasanton, CA (2021)
 Q-Chem 5.4.1 for Intel X86 EM64T Linux

User input:
--------------------------------------------------------------
$molecule
0 2
C         1.6266126473    0.6240631692   -1.7383614064
C         0.4962903095   -0.1635223576   -2.3773930152
O         0.9129863641   -1.5080533234   -2.3663412464
O         0.3151150756    0.3404668428   -3.6792939940
O         2.7563352618    0.5736110411   -2.5328221695
H         0.1249691187   -2.0547397828   -2.5203583210
H        -0.5551172658    0.0375077710   -3.9867782485
H         1.8081779420    0.3056333722   -0.7093524286
H        -0.4158696594   -0.0348300270   -1.7836177336
O         1.1268259678    2.0061542683   -1.6532583288
O         2.0129461511    2.7565440497   -1.0430096862
H         3.5107218873    0.8573397765   -1.9893553219
$end

$rem
BASIS = 6-311++G(2df,2p)
GUI = 2
JOB_TYPE = Optimization
METHOD = wB97M-V
SCF_ALGORITHM = DIIS_GDM
MAX_SCF_CYCLES = 400
GEOM_OPT_MAX_CYCLES = 150
SCF_CONVERGENCE = 7
THRESH = 12
UNRESTRICTED = 1
Solvent_method = SMD
$end
--------------------------------------------------------------

   21    -455.2557260217      5.58e-08  Convergence criterion met
 Total energy in the final basis set =     -455.2518200552
   19    -455.2562257831      6.71e-08  Convergence criterion met
 Total energy in the final basis set =     -455.2522823661
   18    -455.2563002743      7.39e-08  Convergence criterion met
 Total energy in the final basis set =     -455.2523306323
   19    -455.2563262803      2.65e-08  Convergence criterion met
 Total energy in the final basis set =     -455.2523493514
   18    -455.2563444515      4.30e-08  Convergence criterion met
 Total energy in the final basis set =     -455.2523622863
   18    -455.2563472117      8.27e-08  Convergence criterion met
 Total energy in the final basis set =     -455.2523643849

             Standard Nuclear Orientation (Angstroms)
    I     Atom           X                Y                Z
 ----------------------------------------------------------------
    1      C       1.6339595570     0.6298880287    -1.7529351582
    2      C       0.5047290790    -0.1586103868    -2.3877816017
    3      O       0.9026161608    -1.5070129138    -2.3517700138
    4      O       0.3279893345     0.3108408184    -3.7013313808
    5      O       2.7586284754     0.6116984442    -2.5505421791
    6      H       0.1186379270    -2.0574258864    -2.4581526708
    7      H      -0.5554424583     0.0622694345    -3.9954950444
    8      H       1.8278345278     0.2961245147    -0.7361703587
    9      H      -0.4063339914    -0.0138652228    -1.8063718799
   10      O       1.1172893180     2.0014340463    -1.6403479560
   11      O       1.9600216742     2.7539882533    -0.9917959567
   12      H       3.5300641960     0.8108456698    -2.0072477000
 ----------------------------------------------------------------

   17    -455.2563481678      8.61e-08  Convergence criterion met
 Total energy in the final basis set =     -455.2523650384
 Final energy is   -455.252365038430
 **  OPTIMIZATION CONVERGED  **

                    Orbital Energies (a.u.)
 --------------------------------------------------------------

 Alpha MOs
 -- Occupied --
-19.4638 -19.4230 -19.3652 -19.3510 -19.3506 -10.4625 -10.4566  -1.3505
 -1.2159  -1.1869  -1.1424  -1.0157  -0.8575  -0.7462  -0.7023  -0.6773
 -0.6348  -0.6333  -0.6266  -0.5927  -0.5637  -0.5113  -0.5047  -0.4612
 -0.4544  -0.4252  -0.4170  -0.4033  -0.4031

 Beta MOs
 -- Occupied --
-19.4538 -19.4039 -19.3650 -19.3510 -19.3505 -10.4629 -10.4566  -1.3249
 -1.2148  -1.1858  -1.1423  -0.9843  -0.8486  -0.7418  -0.6973  -0.6696
 -0.6308  -0.6192  -0.6125  -0.5562  -0.5454  -0.5105  -0.4895  -0.4561
 -0.4499  -0.4240  -0.4168  -0.3858

          Ground-State Mulliken Net Atomic Charges

     Atom                 Charge (a.u.)    Spin (a.u.)
  --------------------------------------------------------
      1 C                    -0.000230      -0.002395
      2 C                    -0.101800      -0.000922
      3 O                    -0.442951      -0.000044
      4 O                    -0.440279       0.002308
      5 O                    -0.408448       0.002608
      6 H                     0.342811      -0.000455
      7 H                     0.347901       0.000178
      8 H                     0.281238       0.005502
      9 H                     0.262080       0.000406
     10 O                     0.020604       0.306484
     11 O                    -0.219709       0.685907
     12 H                     0.358782       0.000424
  --------------------------------------------------------
  Sum of atomic charges =     0.000000

                    Cartesian Multipole Moments
 -----------------------------------------------------------------
    Charge (ESU x 10^10)
                 0.0000
    Dipole Moment (Debye)
         X      -3.4980      Y      -3.6681      Z       1.9383
       Tot       5.4266
    Quadrupole Moments (Debye-Ang)
        XX     -36.4232     XY       0.7023     YY     -50.4357
        XZ      15.9025     YZ       7.4071     ZZ     -51.0691

 Total job time:  851.56s(wall), 6540.29s(cpu)
        *  Thank you very much for using Q-Chem.  Have a nice day.  *
