 Q-Chem 5.4, Q-Chem, Inc., Pleasanton, CA (2021)
 Q-Chem 5.4.1 for Intel X86 EM64T Linux

User input:
--------------------------------------------------------------
$molecule
-1 1
O        -0.7700752962    1.0095248173   -0.0901959350
C        -0.3608196099   -0.2115914739    0.4922317158
O        -1.0496930004   -1.3042071768   -0.0673185286
C         1.1546408297   -0.3521732406    0.2396058149
O         1.8571576590    0.5647537115    0.7328913092
O         1.5662840877   -1.3426908188   -0.4048193267
H        -1.6025330528    1.2738191661    0.3164522571
H        -1.9354580049   -1.3186989432    0.3121775248
H        -0.5354792121   -0.1788818416    1.5697029686
$end

$rem
BASIS = def2-QZVP
JOB_TYPE = SP
METHOD = wB97M-V
SCF_ALGORITHM = DIIS_GDM
MAX_SCF_CYCLES = 400
SCF_CONVERGENCE = 7
THRESH = 12
Solvent_method = SMD
$end
--------------------------------------------------------------

             Standard Nuclear Orientation (Angstroms)
    I     Atom           X                Y                Z
 ----------------------------------------------------------------
    1      O      -0.7700752962     1.0095248173    -0.0901959350
    2      C      -0.3608196099    -0.2115914739     0.4922317158
    3      O      -1.0496930004    -1.3042071768    -0.0673185286
    4      C       1.1546408297    -0.3521732406     0.2396058149
    5      O       1.8571576590     0.5647537115     0.7328913092
    6      O       1.5662840877    -1.3426908188    -0.4048193267
    7      H      -1.6025330528     1.2738191661     0.3164522571
    8      H      -1.9354580049    -1.3186989432     0.3121775248
    9      H      -0.5354792121    -0.1788818416     1.5697029686
 ----------------------------------------------------------------

   14    -379.1683982247      9.64e-08  Convergence criterion met
 Total energy in the final basis set =     -379.1617228496

                    Orbital Energies (a.u.)
 --------------------------------------------------------------

 Alpha MOs
 -- Occupied --
-19.3369 -19.3356 -19.2818 -19.2792 -10.4368 -10.4364  -1.1979  -1.1596
 -1.1280  -1.0754  -0.8115  -0.6450  -0.6361  -0.6313  -0.5742  -0.5274
 -0.5082  -0.4965  -0.4871  -0.4119  -0.4075  -0.3686  -0.3583  -0.3557

          Ground-State Mulliken Net Atomic Charges

     Atom                 Charge (a.u.)
  ----------------------------------------
      1 O                    -0.510347
      2 C                     0.237924
      3 O                    -0.514205
      4 C                     0.311057
      5 O                    -0.628450
      6 O                    -0.626432
      7 H                     0.323966
      8 H                     0.321664
      9 H                     0.084824
  ----------------------------------------
  Sum of atomic charges =    -1.000000

                    Cartesian Multipole Moments
 -----------------------------------------------------------------
    Charge (ESU x 10^10)
                -4.8032
    Dipole Moment (Debye)
         X     -12.0510      Y       2.2628      Z       2.5857
       Tot      12.5312
    Quadrupole Moments (Debye-Ang)
        XX     -47.0831     XY       1.7521     YY     -47.1286
        XZ      -5.9893     YZ      -4.5400     ZZ     -37.8028

 Total job time:  686.35s(wall), 2537.15s(cpu)
        *  Thank you very much for using Q-Chem.  Have a nice day.  *
