 Q-Chem 5.4, Q-Chem, Inc., Pleasanton, CA (2021)
 Q-Chem 5.4.1 for Intel X86 EM64T Linux

User input:
--------------------------------------------------------------
$molecule
0 1
C         1.8235784383   -0.0637334893    0.0002473030
O         2.3417852248    1.1510612460    0.0007760691
O         2.4376891661   -1.0978774708    0.0006843887
C         0.2881145663   -0.0022133723   -0.0008982110
O        -0.3258508336    1.0319556106   -0.0015152341
O        -0.2300177268   -1.2169567043   -0.0008235433
H         3.3109425424    1.0843720479    0.0015034206
H        -1.1991530757   -1.1507164572   -0.0014270296
$end

$rem
BASIS = 6-31G(d)
JOB_TYPE = SP
METHOD = wB97M-V
SCF_ALGORITHM = DIIS_GDM
MAX_SCF_CYCLES = 400
SCF_CONVERGENCE = 7
THRESH = 12
Solvent_method = SMD
$end
--------------------------------------------------------------

             Standard Nuclear Orientation (Angstroms)
    I     Atom           X                Y                Z
 ----------------------------------------------------------------
    1      C       1.8235784383    -0.0637334893     0.0002473030
    2      O       2.3417852248     1.1510612460     0.0007760691
    3      O       2.4376891661    -1.0978774708     0.0006843887
    4      C       0.2881145663    -0.0022133723    -0.0008982110
    5      O      -0.3258508336     1.0319556106    -0.0015152341
    6      O      -0.2300177268    -1.2169567043    -0.0008235433
    7      H       3.3109425424     1.0843720479     0.0015034206
    8      H      -1.1991530757    -1.1507164572    -0.0014270296
 ----------------------------------------------------------------

   12    -378.2372713442      4.61e-08  Convergence criterion met
 Total energy in the final basis set =     -378.2279477500

                    Orbital Energies (a.u.)
 --------------------------------------------------------------

 Alpha MOs
 -- Occupied --
-19.4141 -19.4141 -19.3676 -19.3676 -10.5168 -10.5167  -1.2707  -1.2455
 -1.1783  -1.1617  -0.8430  -0.7451  -0.6446  -0.6199  -0.6141  -0.6048
 -0.5491  -0.5454  -0.5075  -0.4482  -0.4433  -0.4366  -0.3811

          Ground-State Mulliken Net Atomic Charges

     Atom                 Charge (a.u.)
  ----------------------------------------
      1 C                     0.577820
      2 O                    -0.573204
      3 O                    -0.491236
      4 C                     0.577832
      5 O                    -0.491196
      6 O                    -0.573168
      7 H                     0.486567
      8 H                     0.486585
  ----------------------------------------
  Sum of atomic charges =     0.000000

                    Cartesian Multipole Moments
 -----------------------------------------------------------------
    Charge (ESU x 10^10)
                 0.0000
    Dipole Moment (Debye)
         X      -0.0010      Y      -0.0012      Z       0.0007
       Tot       0.0017
    Quadrupole Moments (Debye-Ang)
        XX     -22.4138     XY      11.0571     YY     -39.2924
        XZ       0.0055     YZ       0.0086     ZZ     -31.2371

 Total job time:  16.01s(wall), 58.82s(cpu)
        *  Thank you very much for using Q-Chem.  Have a nice day.  *
