 Q-Chem 5.4, Q-Chem, Inc., Pleasanton, CA (2021)
 Q-Chem 5.4.1 for Intel X86 EM64T Linux

User input:
--------------------------------------------------------------
$molecule
0 2
C    0.5695365    0.0119302    0.6700025
O    1.4789047   -0.2444354    1.4529370
H   -1.5874792   -0.0042416   -0.8607254
C   -0.5883876   -0.8391455    0.5767346
O   -0.5918968   -1.9098741    1.3586141
O   -1.6065447   -0.7618225   -0.2626694
O    0.6742482    1.1189624   -0.0988121
H   -0.1018850    1.3272415   -0.6326109
O   -1.5183944    0.8592389    2.0550453
O   -2.5615200    1.1545408    1.5113734
H   -1.4004994   -2.4225411    1.2079938
$end

$rem
BASIS = 6-311++G(2df,2p)
GUI = 2
JOB_TYPE = Frequency
METHOD = wB97M-V
SOLVENT_METHOD = SMD
SCF_ALGORITHM = DIIS_GDM
MAX_SCF_CYCLES = 400
SCF_CONVERGENCE = 7
THRESH = 12
$end

--------------------------------------------------------------

   29    -529.2777678617      7.96e-08  Convergence criterion met
 Total energy in the final basis set =     -529.2706013175
   22    -529.2777714702      3.66e-08  Convergence criterion met
 Total energy in the final basis set =     -529.2706003401
   22    -529.2777620452      3.66e-08  Convergence criterion met
 Total energy in the final basis set =     -529.2706001105
   22    -529.2777739227      3.61e-08  Convergence criterion met
 Total energy in the final basis set =     -529.2706005763
   22    -529.2777601744      3.74e-08  Convergence criterion met
 Total energy in the final basis set =     -529.2706004938
   22    -529.2777642318      3.61e-08  Convergence criterion met
 Total energy in the final basis set =     -529.2706005389
   22    -529.2777698013      3.75e-08  Convergence criterion met
 Total energy in the final basis set =     -529.2706004503
   22    -529.2777648014      3.65e-08  Convergence criterion met
 Frequency:      -241.95                  38.25                  88.13
 Force Cnst:      0.3515                 0.0087                 0.0349
 Red. Mass:      10.1913                10.0560                 7.6187
 IR Intens:      653.888                  5.368                 37.032
 Frequency:       103.33                 164.09                 187.50
 Force Cnst:      0.0616                 0.0532                 0.1597
 Red. Mass:       9.7926                 3.3526                 7.7075
 IR Intens:        0.604                 35.908                 26.719
 Frequency:       254.74                 283.38                 349.97
 Force Cnst:      0.0760                 0.1960                 0.1315
 Red. Mass:       1.9881                 4.1421                 1.8222
 IR Intens:      399.760                 26.617                191.046
 Frequency:       394.06                 406.93                 483.04
 Force Cnst:      0.1492                 0.1909                 0.4193
 Red. Mass:       1.6312                 1.9568                 3.0500
 IR Intens:      133.063                148.317                 20.069
 Frequency:       549.26                 615.49                 686.92
 Force Cnst:      1.0111                 1.1642                 2.2781
 Red. Mass:       5.6882                 5.2163                 8.1945
 IR Intens:        8.487                 22.144                 39.885
 Frequency:       820.55                1067.08                1153.33
 Force Cnst:      3.3363                 2.2742                 1.3501
 Red. Mass:       8.4103                 3.3899                 1.7226
 IR Intens:       65.917                563.562               1416.843
 Frequency:      1196.78                1281.50                1366.33
 Force Cnst:      2.0726                 1.4249                 2.8319
 Red. Mass:       2.4560                 1.4726                 2.5746
 IR Intens:     1420.692                698.033               1700.068
 Frequency:      1457.39                1554.94                1695.32
 Force Cnst:      3.4456                11.3499                14.0565
 Red. Mass:       2.7534                 7.9674                 8.3009
 IR Intens:      305.375                941.527                411.496
 Frequency:      3758.99                3807.56                3833.79
 Force Cnst:      8.8698                 9.1156                 9.2312
 Red. Mass:       1.0654                 1.0672                 1.0660
 IR Intens:      341.511                 94.692                301.978

 STANDARD THERMODYNAMIC QUANTITIES AT   298.15 K  AND     1.00 ATM

   This Molecule has  1 Imaginary Frequencies
   Zero point vibrational energy:       39.454 kcal/mol

   Atom    1 Element C  Has Mass   12.00000
   Atom    2 Element O  Has Mass   15.99491
   Atom    3 Element H  Has Mass    1.00783
   Atom    4 Element C  Has Mass   12.00000
   Atom    5 Element O  Has Mass   15.99491
   Atom    6 Element O  Has Mass   15.99491
   Atom    7 Element O  Has Mass   15.99491
   Atom    8 Element H  Has Mass    1.00783
   Atom    9 Element O  Has Mass   15.99491
   Atom   10 Element O  Has Mass   15.99491
   Atom   11 Element H  Has Mass    1.00783
   Molecular Mass:   122.992950 amu
   Principal axes and moments of inertia in amu*Bohr^2:
                             1           2           3
    Eigenvalues --      746.01699  1036.12733  1235.47188
          X               0.95107     0.26603     0.15717
          Y              -0.25704     0.96346    -0.07539
          Z              -0.17148     0.03130     0.98469
   Rotational Symmetry Number is   1
   The Molecule is an Asymmetric Top
   Translational Enthalpy:        0.889 kcal/mol
   Rotational Enthalpy:           0.889 kcal/mol
   Vibrational Enthalpy:         43.416 kcal/mol
   gas constant (RT):             0.592 kcal/mol
   Translational Entropy:        40.335  cal/mol.K
   Rotational Entropy:           28.348  cal/mol.K
   Vibrational Entropy:          25.920  cal/mol.K

   Total Enthalpy:               45.786 kcal/mol
   Total Entropy:                94.602  cal/mol.K
 Total job time:  5173.37s(wall), 74618.14s(cpu)
        *  Thank you very much for using Q-Chem.  Have a nice day.  *
 Q-Chem 5.4, Q-Chem, Inc., Pleasanton, CA (2021)
 Q-Chem 5.4.1 for Intel X86 EM64T Linux

User input:
--------------------------------------------------------------

$molecule
read
$end

$rem
JOBTYPE            rpath
SCF_GUESS          read
RPATH_MAX_CYCLES   30
BASIS = 6-311++G(2df,2p)
METHOD = wB97M-V
SOLVENT_METHOD = SMD
SCF_ALGORITHM = DIIS_GDM
SCF_CONVERGENCE = 7
THRESH = 12
$end
--------------------------------------------------------------

 Total energy in the final basis set =     -529.2707095707
   18    -529.2616499997      8.99e-08  Convergence criterion met
 Total energy in the final basis set =     -529.2546987152
   20    -529.2778322749      7.82e-08  Convergence criterion met
 Total energy in the final basis set =     -529.2707182798
   19    -529.2778319779      8.98e-08  Convergence criterion met
 Total energy in the final basis set =     -529.2707186025
   19    -529.2778321354      9.02e-08  Convergence criterion met
 Total energy in the final basis set =     -529.2707186279
   21    -529.2777678615      5.85e-08  Convergence criterion met
 Total energy in the final basis set =     -529.2706013173
   22    -529.2786256101      8.54e-08  Convergence criterion met
 Total energy in the final basis set =     -529.2713579007

             Standard Nuclear Orientation (Angstroms)
    I     Atom           X                Y                Z
 ----------------------------------------------------------------
    1      C       0.5805305147     0.0264680668     0.6760414778
    2      O       1.4698207398    -0.2437420841     1.4485047306
    3      H      -1.5898478282    -0.0015841992    -0.8599315236
    4      C      -0.6193225400    -0.8327381595     0.5948070934
    5      O      -0.5927742900    -1.8984438871     1.3559450947
    6      O      -1.6014341997    -0.7600750707    -0.2568088104
    7      O       0.6734571530     1.1163030686    -0.0955104224
    8      H      -0.1014061566     1.3291005962    -0.6326402455
    9      O      -1.4834078155     0.8262201408     2.0403028327
   10      O      -2.5690903039     1.1509288412     1.4970055486
   11      H      -1.4004427526    -2.4225838753     1.2101669928
 ----------------------------------------------------------------

   26    -529.2797817961      3.50e-08  Convergence criterion met
 Total energy in the final basis set =     -529.2722639766

                    Orbital Energies (a.u.)
 --------------------------------------------------------------

 Alpha MOs
 -- Occupied --
-19.4330 -19.4213 -19.4105 -19.4010 -19.3925 -19.3503 -10.5498 -10.5218
 -1.3208  -1.3060  -1.2586  -1.2271  -1.1771  -0.9073  -0.8744  -0.7842
 -0.7651  -0.7080  -0.6439  -0.6080  -0.5966  -0.5838  -0.5736  -0.5665
 -0.5563  -0.5522  -0.5230  -0.4905  -0.4504  -0.4280  -0.3577  -0.3350

 Beta MOs
 -- Occupied --
-19.4337 -19.4225 -19.4012 -19.3909 -19.3734 -19.3516 -10.5522 -10.5219
 -1.3117  -1.2804  -1.2596  -1.2293  -1.1788  -0.8882  -0.8446  -0.7860
 -0.7659  -0.7097  -0.6462  -0.6096  -0.5766  -0.5729  -0.5583  -0.5532
 -0.5275  -0.5232  -0.4989  -0.4930  -0.4559  -0.4296  -0.2770

          Ground-State Mulliken Net Atomic Charges

     Atom                 Charge (a.u.)    Spin (a.u.)
  --------------------------------------------------------
      1 C                     0.320422      -0.015430
      2 O                    -0.429003      -0.047766
      3 H                     0.370613       0.000854
      4 C                     0.286231      -0.159231
      5 O                    -0.247577      -0.037305
      6 O                    -0.230280      -0.026409
      7 O                    -0.307049      -0.007770
      8 H                     0.345296       0.000397
      9 O                    -0.209566       0.639775
     10 O                    -0.287083       0.652019
     11 H                     0.387997       0.000866
  --------------------------------------------------------
  Sum of atomic charges =     0.000000

                    Cartesian Multipole Moments
 -----------------------------------------------------------------
    Charge (ESU x 10^10)
                 0.0000
    Dipole Moment (Debye)
         X      -2.4929      Y      -3.8928      Z      -8.0741
       Tot       9.3038
    Quadrupole Moments (Debye-Ang)
        XX     -57.8352     XY       9.4225     YY     -40.0630
        XZ       4.1493     YZ      -8.5018     ZZ     -54.9807
