 Q-Chem 5.4, Q-Chem, Inc., Pleasanton, CA (2021)
 Q-Chem 5.4.1 for Intel X86 EM64T Linux

User input:
--------------------------------------------------------------
$molecule
0 2
C         0.5695364666    0.0119301795    0.6700025330
O         1.4789047047   -0.2444354264    1.4529369886
H        -1.5874791836   -0.0042416406   -0.8607253565
C        -0.5883875990   -0.8391455004    0.5767346309
O        -0.5918967654   -1.9098741433    1.3586140692
O        -1.6065446707   -0.7618225066   -0.2626693904
O         0.6742482200    1.1189624247   -0.0988121464
H        -0.1018849591    1.3272414999   -0.6326109051
O        -1.5183944077    0.8592388770    2.0550452789
O        -2.5615200239    1.1545408207    1.5113733859
H        -1.4004993818   -2.4225410845    1.2079938120
$end

$rem
BASIS = def2-QZVP
JOB_TYPE = SP
METHOD = wB97M-V
SCF_ALGORITHM = DIIS_GDM
MAX_SCF_CYCLES = 400
SCF_CONVERGENCE = 7
THRESH = 12
Solvent_method = SMD
$end
--------------------------------------------------------------

             Standard Nuclear Orientation (Angstroms)
    I     Atom           X                Y                Z
 ----------------------------------------------------------------
    1      C       0.5695364666     0.0119301795     0.6700025330
    2      O       1.4789047047    -0.2444354264     1.4529369886
    3      H      -1.5874791836    -0.0042416406    -0.8607253565
    4      C      -0.5883875990    -0.8391455004     0.5767346309
    5      O      -0.5918967654    -1.9098741433     1.3586140692
    6      O      -1.6065446707    -0.7618225066    -0.2626693904
    7      O       0.6742482200     1.1189624247    -0.0988121464
    8      H      -0.1018849591     1.3272414999    -0.6326109051
    9      O      -1.5183944077     0.8592388770     2.0550452789
   10      O      -2.5615200239     1.1545408207     1.5113733859
   11      H      -1.4004993818    -2.4225410845     1.2079938120
 ----------------------------------------------------------------

   29    -529.3380577865      4.39e-08  Convergence criterion met
 Total energy in the final basis set =     -529.3308912431

                    Orbital Energies (a.u.)
 --------------------------------------------------------------

 Alpha MOs
 -- Occupied --
-19.4715 -19.4606 -19.4006 -19.3898 -19.3797 -19.3184 -10.4922 -10.4888
 -1.4091  -1.2712  -1.2295  -1.1939  -1.1448  -0.9474  -0.8514  -0.7534
 -0.7400  -0.6809  -0.6631  -0.6558  -0.6461  -0.5821  -0.5787  -0.5485
 -0.5331  -0.5317  -0.5057  -0.4647  -0.4250  -0.4047  -0.3964  -0.3899

 Beta MOs
 -- Occupied --
-19.4436 -19.4334 -19.4029 -19.3925 -19.3804 -19.3225 -10.4991 -10.4897
 -1.3576  -1.2777  -1.2329  -1.1996  -1.1505  -0.8784  -0.8577  -0.7583
 -0.7425  -0.6842  -0.6365  -0.5976  -0.5872  -0.5623  -0.5518  -0.5515
 -0.5371  -0.5353  -0.5090  -0.4831  -0.4437  -0.4091  -0.2702

          Ground-State Mulliken Net Atomic Charges

     Atom                 Charge (a.u.)    Spin (a.u.)
  --------------------------------------------------------
      1 C                     0.324224      -0.092414
      2 O                    -0.473473      -0.144851
      3 H                     0.348235       0.003894
      4 C                     0.281318      -0.425388
      5 O                    -0.346403      -0.077451
      6 O                    -0.334077      -0.066840
      7 O                    -0.374812      -0.023548
      8 H                     0.323147       0.001791
      9 O                    -0.037379       0.910374
     10 O                    -0.059188       0.909596
     11 H                     0.348407       0.004838
  --------------------------------------------------------
  Sum of atomic charges =     0.000000

                    Cartesian Multipole Moments
 -----------------------------------------------------------------
    Charge (ESU x 10^10)
                 0.0000
    Dipole Moment (Debye)
         X      -6.4914      Y      -0.6309      Z      -5.7194
       Tot       8.6746
    Quadrupole Moments (Debye-Ang)
        XX     -50.6607     XY       3.5989     YY     -40.1322
        XZ      -3.7792     YZ      -3.2744     ZZ     -49.9496

 Total job time:  2270.90s(wall), 8991.32s(cpu)
        *  Thank you very much for using Q-Chem.  Have a nice day.  *
