 Q-Chem 5.4, Q-Chem, Inc., Pleasanton, CA (2021)
 Q-Chem 5.4.1 for Intel X86 EM64T Linux

User input:
--------------------------------------------------------------
$molecule
0 2
C         1.2493107492   -0.2580111835   -0.4827676067
O         1.9927263652   -1.0207482297   -1.3997807103
C        -0.2039918526   -0.1362529214   -0.9850292355
O        -0.8203761918   -1.3466401861   -1.1420558953
O        -0.3701545085    0.5308123875   -2.1673602266
O         1.8554532490    0.9904942472   -0.3409456695
H         1.2313554315   -0.7229438323    0.5045136637
H         1.7537334588   -1.9508348883   -1.3055062591
H        -0.6279629345   -1.9130827278   -0.3823516654
H        -0.0435766098    1.4370472864   -2.0862653481
H         2.0512743827    1.3479332522   -1.2177311999
O        -0.8696052731    0.6266991803    0.1145034208
O        -2.1349861661    0.8026474159   -0.1281945683
$end

$rem
BASIS = 6-311++G(2df,2p)
GUI = 2
JOB_TYPE = Frequency
METHOD = wB97M-V
SOLVENT_METHOD = SMD
SCF_ALGORITHM = DIIS_GDM
MAX_SCF_CYCLES = 400
SCF_CONVERGENCE = 7
THRESH = 12
UNRESTRICTED = 1
SYMMETRY_IGNORE = 1
$end
--------------------------------------------------------------

   20    -530.5050534686      9.89e-08  Convergence criterion met
 Total energy in the final basis set =     -530.5004726081
   18    -530.5050601683      9.15e-08  Convergence criterion met
 Total energy in the final basis set =     -530.5004716956
   18    -530.5050450431      9.08e-08  Convergence criterion met
 Total energy in the final basis set =     -530.5004716382
   18    -530.5050573277      9.68e-08  Convergence criterion met
 Total energy in the final basis set =     -530.5004714619
   18    -530.5050477295      9.34e-08  Convergence criterion met
 Total energy in the final basis set =     -530.5004715762
   18    -530.5050504903      9.62e-08  Convergence criterion met
 Total energy in the final basis set =     -530.5004714199
   18    -530.5050542388      9.20e-08  Convergence criterion met
 Total energy in the final basis set =     -530.5004714025
   18    -530.5050499248      9.47e-08  Convergence criterion met
 Total energy in the final basis set =     -530.5004723193
   19    -530.5050530518      3.80e-08  Convergence criterion met
 Total energy in the final basis set =     -530.5004721374
   18    -530.5050524851      8.00e-08  Convergence criterion met
 Total energy in the final basis set =     -530.5004716366
   19    -530.5050527418      3.63e-08  Convergence criterion met
 Total energy in the final basis set =     -530.5004718693
   18    -530.5050534773      8.24e-08  Convergence criterion met
 Total energy in the final basis set =     -530.5004725958
   19    -530.5050533592      4.23e-08  Convergence criterion met
 Total energy in the final basis set =     -530.5004725197
   18    -530.5050534729      8.31e-08  Convergence criterion met
 Total energy in the final basis set =     -530.5004725128
   18    -530.5050532807      8.09e-08  Convergence criterion met
 Total energy in the final basis set =     -530.5004725199

                    Orbital Energies (a.u.)
 --------------------------------------------------------------

 Alpha MOs
 -- Occupied --
-19.4611 -19.4240 -19.3730 -19.3721 -19.3584 -19.3546 -10.5220 -10.4628
 -1.3537  -1.2459  -1.2095  -1.1737  -1.1456  -1.0079  -0.8424  -0.7820
 -0.7071  -0.6831  -0.6658  -0.6585  -0.6133  -0.6051  -0.5954  -0.5392
 -0.5271  -0.5066  -0.4897  -0.4742  -0.4540  -0.4346  -0.4161  -0.4038
 -0.3861

 Beta MOs
 -- Occupied --
-19.4514 -19.4046 -19.3728 -19.3720 -19.3583 -19.3546 -10.5223 -10.4628
 -1.3301  -1.2420  -1.2091  -1.1733  -1.1455  -0.9746  -0.8359  -0.7810
 -0.6980  -0.6816  -0.6620  -0.6476  -0.6003  -0.5849  -0.5612  -0.5278
 -0.5178  -0.5037  -0.4889  -0.4720  -0.4483  -0.4320  -0.4053  -0.3770

          Ground-State Mulliken Net Atomic Charges

     Atom                 Charge (a.u.)    Spin (a.u.)
  --------------------------------------------------------
      1 C                     0.033867       0.000282
      2 O                    -0.438429      -0.000915
      3 C                     0.158804      -0.001136
      4 O                    -0.429206       0.003414
      5 O                    -0.425954       0.003597
      6 O                    -0.430150       0.003841
      7 H                     0.316204       0.000427
      8 H                     0.342387      -0.000073
      9 H                     0.360412      -0.000082
     10 H                     0.359010      -0.000125
     11 H                     0.347313      -0.000629
     12 O                     0.036610       0.294992
     13 O                    -0.230867       0.696406
  --------------------------------------------------------
  Sum of atomic charges =     0.000000

                    Cartesian Multipole Moments
 -----------------------------------------------------------------
    Charge (ESU x 10^10)
                 0.0000
    Dipole Moment (Debye)
         X       3.0328      Y      -2.2674      Z       0.7839
       Tot       3.8670
    Quadrupole Moments (Debye-Ang)
        XX     -58.2366     XY       0.7276     YY     -34.2775
        XZ      -4.2774     YZ      -8.4093     ZZ     -51.2647

             Standard Nuclear Orientation (Angstroms)
    I     Atom           X                Y                Z
 ----------------------------------------------------------------
    1      C       1.2493107492    -0.2580111835    -0.4827676067
    2      O       1.9927263652    -1.0207482297    -1.3997807103
    3      C      -0.2039918526    -0.1362529214    -0.9850292355
    4      O      -0.8203761918    -1.3466401861    -1.1420558953
    5      O      -0.3701545085     0.5308123875    -2.1673602266
    6      O       1.8554532490     0.9904942472    -0.3409456695
    7      H       1.2313554315    -0.7229438323     0.5045136637
    8      H       1.7537334588    -1.9508348883    -1.3055062591
    9      H      -0.6279629345    -1.9130827278    -0.3823516654
   10      H      -0.0435766098     1.4370472864    -2.0862653481
   11      H       2.0512743827     1.3479332522    -1.2177311999
   12      O      -0.8696052731     0.6266991803     0.1145034208
   13      O      -2.1349861661     0.8026474159    -0.1281945683
 ----------------------------------------------------------------

 Frequency:        95.61                 115.94                 182.02
 Force Cnst:      0.0365                 0.0821                 0.0242
 Red. Mass:       6.7809                10.3649                 1.2413
 IR Intens:        0.466                  2.774                180.102
 Frequency:       189.66                 236.96                 266.39
 Force Cnst:      0.0954                 0.0389                 0.2127
 Red. Mass:       4.5021                 1.1768                 5.0862
 IR Intens:       56.695                412.790                 42.520
 Frequency:       322.42                 371.58                 379.97
 Force Cnst:      0.6568                 0.1136                 0.5933
 Red. Mass:      10.7232                 1.3960                 6.9746
 IR Intens:       24.576                300.828                 28.396
 Frequency:       434.96                 489.79                 531.57
 Force Cnst:      0.3238                 0.7341                 0.3697
 Red. Mass:       2.9053                 5.1936                 2.2207
 IR Intens:       58.692                 45.263                 30.221
 Frequency:       589.66                 626.08                 731.89
 Force Cnst:      0.9006                 0.3971                 2.1368
 Red. Mass:       4.3962                 1.7196                 6.7704
 IR Intens:       11.769                  8.289                 16.915
 Frequency:       830.54                 902.26                1096.29
 Force Cnst:      3.0277                 3.5362                 1.9608
 Red. Mass:       7.4498                 7.3726                 2.7691
 IR Intens:      163.384                216.717                378.164
 Frequency:      1109.36                1186.60                1217.88
 Force Cnst:      1.9470                 1.4625                 1.0494
 Red. Mass:       2.6852                 1.7629                 1.2008
 IR Intens:      288.035                 69.161                224.946
 Frequency:      1252.30                1275.16                1352.64
 Force Cnst:      2.6900                 5.4565                 1.5264
 Red. Mass:       2.9113                 5.6956                 1.4160
 IR Intens:      115.075                 72.619                120.256
 Frequency:      1390.93                1414.43                1430.34
 Force Cnst:      1.9047                 1.9332                 2.7197
 Red. Mass:       1.6710                 1.6401                 2.2563
 IR Intens:       70.413                 85.209                196.245
 Frequency:      1456.29                3091.95                3780.95
 Force Cnst:      1.9225                 6.1291                 8.9805
 Red. Mass:       1.5386                 1.0881                 1.0662
 IR Intens:       31.892                 31.524                 91.294
 Frequency:      3789.10                3795.49                3817.47
 Force Cnst:      9.0213                 9.0485                 9.1567
 Red. Mass:       1.0665                 1.0661                 1.0664
 IR Intens:      179.892                247.116                165.868

 STANDARD THERMODYNAMIC QUANTITIES AT   298.15 K  AND     1.00 ATM

   This Molecule has  0 Imaginary Frequencies
   Zero point vibrational energy:       56.832 kcal/mol

   Atom    1 Element C  Has Mass   12.00000
   Atom    2 Element O  Has Mass   15.99491
   Atom    3 Element C  Has Mass   12.00000
   Atom    4 Element O  Has Mass   15.99491
   Atom    5 Element O  Has Mass   15.99491
   Atom    6 Element O  Has Mass   15.99491
   Atom    7 Element H  Has Mass    1.00783
   Atom    8 Element H  Has Mass    1.00783
   Atom    9 Element H  Has Mass    1.00783
   Atom   10 Element H  Has Mass    1.00783
   Atom   11 Element H  Has Mass    1.00783
   Atom   12 Element O  Has Mass   15.99491
   Atom   13 Element O  Has Mass   15.99491
   Molecular Mass:   125.008610 amu
   Principal axes and moments of inertia in amu*Bohr^2:
                             1           2           3
    Eigenvalues --      545.35422  1087.08036  1270.17927
          X               0.96768     0.25040     0.03000
          Y              -0.20236     0.84196    -0.50015
          Z              -0.15050     0.47792     0.86542
   Rotational Symmetry Number is   1
   The Molecule is an Asymmetric Top
   Translational Enthalpy:        0.889 kcal/mol
   Rotational Enthalpy:           0.889 kcal/mol
   Vibrational Enthalpy:         60.619 kcal/mol
   gas constant (RT):             0.592 kcal/mol
   Translational Entropy:        40.383  cal/mol.K
   Rotational Entropy:           28.111  cal/mol.K
   Vibrational Entropy:          22.037  cal/mol.K

   Total Enthalpy:               62.988 kcal/mol
   Total Entropy:                90.532  cal/mol.K
 Total job time:  11627.64s(wall), 89970.88s(cpu)
        *  Thank you very much for using Q-Chem.  Have a nice day.  *
