 Q-Chem 5.4, Q-Chem, Inc., Pleasanton, CA (2021)
 Q-Chem 5.4.1 for Intel X86 EM64T Linux

User input:
--------------------------------------------------------------
$molecule
0 2
C         1.2641995745   -0.2313110438   -0.4371110567
O         2.0274586972   -1.0225802244   -1.3140840701
C        -0.1842935979   -0.1524549406   -0.9595565024
O        -0.7560807084   -1.3910749797   -1.1343063678
O        -0.3403889051    0.5006902076   -2.1545181903
O         1.8547832688    1.0337339660   -0.3484553715
H         1.2433312919   -0.6437164319    0.5797937610
H         1.4977995670   -1.8061931290   -1.5452103819
H        -0.6383353012   -1.9069541106   -0.3155834106
H         0.0328671671    1.3962993007   -2.0696821359
H         2.1205517784    1.2904364352   -1.2501243487
O        -0.8958787624    0.5859350081    0.1169801073
O        -2.1628139700    0.7343097427   -0.1871133325
$end

$rem
BASIS = 6-311++G(2df,2p)
GUI = 2
JOB_TYPE = Optimization
METHOD = wB97M-V
SCF_ALGORITHM = DIIS_GDM
MAX_SCF_CYCLES = 400
GEOM_OPT_MAX_CYCLES = 150
SCF_CONVERGENCE = 7
THRESH = 12
Solvent_method = SMD
$end
--------------------------------------------------------------

   21    -530.5039214483      4.19e-08  Convergence criterion met
 Total energy in the final basis set =     -530.4995671437
   19    -530.5045390660      7.61e-08  Convergence criterion met
 Total energy in the final basis set =     -530.5000879595
   19    -530.5046457114      6.71e-08  Convergence criterion met
 Total energy in the final basis set =     -530.5001442629
   19    -530.5046949223      5.99e-08  Convergence criterion met
 Total energy in the final basis set =     -530.5001772940
   19    -530.5047644266      6.37e-08  Convergence criterion met
 Total energy in the final basis set =     -530.5002254383
   19    -530.5048348611      5.43e-08  Convergence criterion met
 Total energy in the final basis set =     -530.5002720889
   19    -530.5049530256      6.88e-08  Convergence criterion met
 Total energy in the final basis set =     -530.5003504104
   19    -530.5050174966      4.52e-08  Convergence criterion met
 Total energy in the final basis set =     -530.5003952531
   19    -530.5050369458      4.24e-08  Convergence criterion met
 Total energy in the final basis set =     -530.5004480229
   19    -530.5050525555      4.24e-08  Convergence criterion met
 Total energy in the final basis set =     -530.5004696649
   18    -530.5050500375      8.97e-08  Convergence criterion met
 Total energy in the final basis set =     -530.5004720882

             Standard Nuclear Orientation (Angstroms)
    I     Atom           X                Y                Z
 ----------------------------------------------------------------
    1      C       1.2493107492    -0.2580111835    -0.4827676067
    2      O       1.9927263652    -1.0207482297    -1.3997807103
    3      C      -0.2039918526    -0.1362529214    -0.9850292355
    4      O      -0.8203761918    -1.3466401861    -1.1420558953
    5      O      -0.3701545085     0.5308123875    -2.1673602266
    6      O       1.8554532490     0.9904942472    -0.3409456695
    7      H       1.2313554315    -0.7229438323     0.5045136637
    8      H       1.7537334588    -1.9508348883    -1.3055062591
    9      H      -0.6279629345    -1.9130827278    -0.3823516654
   10      H      -0.0435766098     1.4370472864    -2.0862653481
   11      H       2.0512743827     1.3479332522    -1.2177311999
   12      O      -0.8696052731     0.6266991803     0.1145034208
   13      O      -2.1349861661     0.8026474159    -0.1281945683
 ----------------------------------------------------------------

   19    -530.5050534684      4.33e-08  Convergence criterion met
 Total energy in the final basis set =     -530.5004726079
 Final energy is   -530.500472607901
 **  OPTIMIZATION CONVERGED  **

                    Orbital Energies (a.u.)
 --------------------------------------------------------------

 Alpha MOs
 -- Occupied --
-19.4611 -19.4240 -19.3730 -19.3721 -19.3584 -19.3546 -10.5220 -10.4628
 -1.3538  -1.2459  -1.2095  -1.1737  -1.1456  -1.0079  -0.8423  -0.7820
 -0.7071  -0.6831  -0.6659  -0.6585  -0.6133  -0.6051  -0.5955  -0.5392
 -0.5271  -0.5066  -0.4897  -0.4742  -0.4540  -0.4346  -0.4160  -0.4038
 -0.3861

 Beta MOs
 -- Occupied --
-19.4514 -19.4046 -19.3728 -19.3720 -19.3583 -19.3546 -10.5224 -10.4629
 -1.3302  -1.2420  -1.2091  -1.1733  -1.1455  -0.9746  -0.8359  -0.7810
 -0.6980  -0.6816  -0.6620  -0.6476  -0.6003  -0.5849  -0.5613  -0.5278
 -0.5178  -0.5037  -0.4889  -0.4720  -0.4483  -0.4320  -0.4053  -0.3770

          Ground-State Mulliken Net Atomic Charges

     Atom                 Charge (a.u.)    Spin (a.u.)
  --------------------------------------------------------
      1 C                     0.033877       0.000279
      2 O                    -0.438444      -0.000915
      3 C                     0.158797      -0.001135
      4 O                    -0.429182       0.003415
      5 O                    -0.425976       0.003604
      6 O                    -0.430175       0.003842
      7 H                     0.316202       0.000427
      8 H                     0.342394      -0.000073
      9 H                     0.360413      -0.000082
     10 H                     0.359020      -0.000125
     11 H                     0.347316      -0.000629
     12 O                     0.036707       0.295127
     13 O                    -0.230948       0.696264
  --------------------------------------------------------
  Sum of atomic charges =     0.000000

                    Cartesian Multipole Moments
 -----------------------------------------------------------------
    Charge (ESU x 10^10)
                 0.0000
    Dipole Moment (Debye)
         X       3.0334      Y      -2.2677      Z       0.7828
       Tot       3.8674
    Quadrupole Moments (Debye-Ang)
        XX     -58.2379     XY       0.7274     YY     -34.2772
        XZ      -4.2762     YZ      -8.4100     ZZ     -51.2640

 Total job time:  1939.71s(wall), 14990.75s(cpu)
        *  Thank you very much for using Q-Chem.  Have a nice day.  *
