 Q-Chem 5.4, Q-Chem, Inc., Pleasanton, CA (2021)
 Q-Chem 5.4.1 for Intel X86 EM64T Linux

User input:
--------------------------------------------------------------
$molecule
0 1
C   -0.9951438   -1.4108385   -0.0921648
O   -0.4739848   -2.2761259    0.4747835
O   -1.5162723   -0.5454593   -0.6591945
$end

$rem
BASIS = 6-311++G(2df,2p)
GUI = 2
JOB_TYPE = Frequency
METHOD = wB97M-V
SOLVENT_METHOD = SMD
SCF_ALGORITHM = DIIS_GDM
MAX_SCF_CYCLES = 400
SCF_CONVERGENCE = 7
THRESH = 12
$end
--------------------------------------------------------------

   11    -188.6106250646      8.53e-08  Convergence criterion met
 Total energy in the final basis set =     -188.6017640341
   10    -188.6106240769      3.89e-08  Convergence criterion met
 Total energy in the final basis set =     -188.6017630515
   10    -188.6106243138      3.86e-08  Convergence criterion met
 Total energy in the final basis set =     -188.6017632870
   10    -188.6106233731      3.85e-08  Convergence criterion met
 Total energy in the final basis set =     -188.6017623515
   10    -188.6106229034      2.64e-08  Convergence criterion met
 Total energy in the final basis set =     -188.6017618843
   10    -188.6106239248      8.77e-09  Convergence criterion met
 Total energy in the final basis set =     -188.6017629001
   10    -188.6106242439      3.81e-08  Convergence criterion met
 Total energy in the final basis set =     -188.6017632176
   10    -188.6106240063      1.60e-08  Convergence criterion met
 Total energy in the final basis set =     -188.6017635491
   10    -188.6106252354      3.74e-08  Convergence criterion met
 Total energy in the final basis set =     -188.6017635338
   10    -188.6106253844      1.38e-08  Convergence criterion met
 Total energy in the final basis set =     -188.6017637362
   10    -188.6106238881      3.22e-08  Convergence criterion met
 Total energy in the final basis set =     -188.6017634797
   10    -188.6106227613      1.34e-08  Convergence criterion met
 Total energy in the final basis set =     -188.6017627652
   10    -188.6106252417      4.06e-08  Convergence criterion met
 Total energy in the final basis set =     -188.6017631869
   10    -188.6106253952      2.07e-08  Convergence criterion met
 Total energy in the final basis set =     -188.6017636927
   10    -188.6106237440      3.62e-08  Convergence criterion met
 Total energy in the final basis set =     -188.6017633905

                    Orbital Energies (a.u.)
 --------------------------------------------------------------

 Alpha MOs
 -- Occupied --
-19.4096 -19.4095 -10.5348  -1.2923  -1.2503  -0.6830  -0.6366  -0.6302
 -0.6302  -0.4756  -0.4756

          Ground-State Mulliken Net Atomic Charges

     Atom                 Charge (a.u.)
  ----------------------------------------
      1 C                     0.537549
      2 O                    -0.268373
      3 O                    -0.269176
  ----------------------------------------
  Sum of atomic charges =     0.000000

                    Cartesian Multipole Moments
 -----------------------------------------------------------------
    Charge (ESU x 10^10)
                -0.0000
    Dipole Moment (Debye)
         X       0.0018      Y      -0.0033      Z       0.0038
       Tot       0.0054
    Quadrupole Moments (Debye-Ang)
        XX     -15.9686     XY       1.7144     YY     -17.7691
        XZ      -1.1278     YZ       1.8611     ZZ     -16.1575

             Standard Nuclear Orientation (Angstroms)
    I     Atom           X                Y                Z
 ----------------------------------------------------------------
    1      C      -0.9951438000    -1.4108385000    -0.0921648000
    2      O      -0.4739848000    -2.2761259000     0.4747835000
    3      O      -1.5162723000    -0.5454593000    -0.6591945000
 ----------------------------------------------------------------

 Frequency:       672.70                1385.93                2337.67
 Force Cnst:      3.4334                18.1015                41.4612
 Red. Mass:      12.8774                15.9949                12.8774
 IR Intens:       51.114                  0.000               1505.892

 STANDARD THERMODYNAMIC QUANTITIES AT   298.15 K  AND     1.00 ATM

   This Molecule has  0 Imaginary Frequencies
   Zero point vibrational energy:        6.285 kcal/mol

 Q-Chem warning in module 0, line  397:

  SYM_IGNORE is turned on for a linear molecule

    We detect a C*h symmetry
   Atom    1 Element C  Has Mass   12.00000
   Atom    2 Element O  Has Mass   15.99491
   Atom    3 Element O  Has Mass   15.99491
   Molecular Mass:    43.989820 amu
   Principal axes and moments of inertia in amu*Bohr^2:
                             1           2           3
    Eigenvalues --        0.00000   153.29206   153.29206
          X              -0.44989     0.87275     0.18952
          Y               0.74701     0.25143     0.61543
          Z              -0.48946    -0.41844     0.76507
   Rotational Symmetry Number is   1
   The Molecule is a Symmetric Top
   Translational Enthalpy:        0.889 kcal/mol
   Rotational Enthalpy:           0.889 kcal/mol
   Vibrational Enthalpy:          6.368 kcal/mol
   gas constant (RT):             0.592 kcal/mol
   Translational Entropy:        37.270  cal/mol.K
   Rotational Entropy:           14.444  cal/mol.K
   Vibrational Entropy:           0.359  cal/mol.K

   Total Enthalpy:                8.738 kcal/mol
   Total Entropy:                52.073  cal/mol.K
 Total job time:  114.88s(wall), 886.73s(cpu)
        *  Thank you very much for using Q-Chem.  Have a nice day.  *
