 Q-Chem 5.4, Q-Chem, Inc., Pleasanton, CA (2021)
 Q-Chem 5.4.1 for Intel X86 EM64T Linux

User input:
--------------------------------------------------------------
$molecule
0 1
C        -0.9951669259   -1.4108303320   -0.0921655786
O        -0.4700998934   -2.2825614606    0.4789979743
O        -1.5201340807   -0.5390319074   -0.6634081957
$end

$rem
BASIS = 6-311++G(2df,2p)
GUI = 2
JOB_TYPE = Optimization
METHOD = wB97M-V
SCF_ALGORITHM = DIIS_GDM
MAX_SCF_CYCLES = 400
GEOM_OPT_MAX_CYCLES = 150
SCF_CONVERGENCE = 7
THRESH = 12
Solvent_method = SMD
$end
--------------------------------------------------------------

   11    -188.6102959322      2.95e-08  Convergence criterion met
 Total energy in the final basis set =     -188.6014599349
   10    -188.6106230935      3.07e-08  Convergence criterion met
 Total energy in the final basis set =     -188.6017589474

             Standard Nuclear Orientation (Angstroms)
    I     Atom           X                Y                Z
 ----------------------------------------------------------------
    1      C      -0.9951437997    -1.4108384736    -0.0921647784
    2      O      -0.4739847676    -2.2761259495     0.4747835263
    3      O      -1.5162723327    -0.5454592769    -0.6591945479
 ----------------------------------------------------------------

   10    -188.6106250645      1.76e-08  Convergence criterion met
 Total energy in the final basis set =     -188.6017640341
 Final energy is   -188.601764034105
 **  OPTIMIZATION CONVERGED  **

                    Orbital Energies (a.u.)
 --------------------------------------------------------------

 Alpha MOs
 -- Occupied --
-19.4095 -19.4095 -10.5347  -1.2924  -1.2504  -0.6829  -0.6366  -0.6303
 -0.6303  -0.4756  -0.4756

          Ground-State Mulliken Net Atomic Charges

     Atom                 Charge (a.u.)
  ----------------------------------------
      1 C                     0.537693
      2 O                    -0.268782
      3 O                    -0.268912
  ----------------------------------------
  Sum of atomic charges =     0.000000

                    Cartesian Multipole Moments
 -----------------------------------------------------------------
    Charge (ESU x 10^10)
                 0.0000
    Dipole Moment (Debye)
         X       0.0003      Y      -0.0007      Z       0.0005
       Tot       0.0008
    Quadrupole Moments (Debye-Ang)
        XX     -15.9647     XY       1.7148     YY     -17.7765
        XZ      -1.1239     YZ       1.8648     ZZ     -16.1539

 Total job time:  17.81s(wall), 134.36s(cpu)
        *  Thank you very much for using Q-Chem.  Have a nice day.  *
