 Q-Chem 5.4, Q-Chem, Inc., Pleasanton, CA (2021)
 Q-Chem 5.4.1 for Intel X86 EM64T Linux

User input:
--------------------------------------------------------------
$molecule
0 2
C        -0.7331289090   -0.6760306448    0.3672980418
O        -0.8952841265   -1.6586837139    1.2200097559
O        -1.2525592068   -0.4452543372   -0.6740821840
H        -1.5742651576   -2.2840865039    0.8968406863
$end

$rem
BASIS = 6-311++G(2df,2p)
GUI = 2
JOB_TYPE = Frequency
METHOD = wB97M-V
SOLVENT_METHOD = SMD
SCF_ALGORITHM = DIIS_GDM
MAX_SCF_CYCLES = 400
SCF_CONVERGENCE = 7
THRESH = 12
UNRESTRICTED = 1
SYMMETRY_IGNORE = 1
$end
--------------------------------------------------------------

   15    -189.1213930365      5.75e-08  Convergence criterion met
 Total energy in the final basis set =     -189.1126410485
   15    -189.1213918327      2.97e-08  Convergence criterion met
 Total energy in the final basis set =     -189.1126406965
   15    -189.1213932311      2.81e-08  Convergence criterion met
 Total energy in the final basis set =     -189.1126404014
   15    -189.1213894672      2.89e-08  Convergence criterion met
 Total energy in the final basis set =     -189.1126403861
   15    -189.1213954680      2.92e-08  Convergence criterion met
 Total energy in the final basis set =     -189.1126406139
   15    -189.1213936118      2.99e-08  Convergence criterion met
 Total energy in the final basis set =     -189.1126397041
   15    -189.1213898266      2.81e-08  Convergence criterion met
 Total energy in the final basis set =     -189.1126398066
   15    -189.1213930654      3.00e-08  Convergence criterion met
 Total energy in the final basis set =     -189.1126397975
   15    -189.1213901017      3.08e-08  Convergence criterion met
 Total energy in the final basis set =     -189.1126398636
   15    -189.1213920565      2.80e-08  Convergence criterion met
 Total energy in the final basis set =     -189.1126404472
   15    -189.1213931980      2.97e-08  Convergence criterion met
 Total energy in the final basis set =     -189.1126408311
   15    -189.1213920949      2.85e-08  Convergence criterion met
 Total energy in the final basis set =     -189.1126408219
   15    -189.1213932060      2.97e-08  Convergence criterion met
 Total energy in the final basis set =     -189.1126405029
   15    -189.1213932019      2.88e-08  Convergence criterion met
 Total energy in the final basis set =     -189.1126409860
   15    -189.1213925805      2.93e-08  Convergence criterion met
 Total energy in the final basis set =     -189.1126408202

                    Orbital Energies (a.u.)
 --------------------------------------------------------------

 Alpha MOs
 -- Occupied --
-19.4107 -19.3812 -10.4978  -1.2740  -1.2015  -0.7731  -0.6457  -0.6117
 -0.5915  -0.5011  -0.4677  -0.3391

 Beta MOs
 -- Occupied --
-19.4076 -19.3740 -10.4861  -1.2618  -1.1878  -0.7504  -0.6340  -0.5831
 -0.5809  -0.4714  -0.4636

          Ground-State Mulliken Net Atomic Charges

     Atom                 Charge (a.u.)    Spin (a.u.)
  --------------------------------------------------------
      1 C                     0.188043       0.740090
      2 O                    -0.237876      -0.002182
      3 O                    -0.312415       0.209986
      4 H                     0.362248       0.052106
  --------------------------------------------------------
  Sum of atomic charges =     0.000000

                    Cartesian Multipole Moments
 -----------------------------------------------------------------
    Charge (ESU x 10^10)
                 0.0000
    Dipole Moment (Debye)
         X      -0.9948      Y      -2.4016      Z       1.1867
       Tot       2.8576
    Quadrupole Moments (Debye-Ang)
        XX     -14.3916     XY       5.2810     YY     -10.1516
        XZ      -3.2255     YZ      -1.0189     ZZ     -19.5140

             Standard Nuclear Orientation (Angstroms)
    I     Atom           X                Y                Z
 ----------------------------------------------------------------
    1      C      -0.7331289090    -0.6760306448     0.3672980418
    2      O      -0.8952841265    -1.6586837139     1.2200097559
    3      O      -1.2525592068    -0.4452543372    -0.6740821840
    4      H      -1.5742651576    -2.2840865039     0.8968406863
 ----------------------------------------------------------------

 Frequency:       553.68                 611.30                1076.07
 Force Cnst:      0.2783                 0.8825                 3.5358
 Red. Mass:       1.5409                 4.0081                 5.1828
 IR Intens:      194.088                 75.143                391.654
 Frequency:      1308.68                1808.13                3611.32
 Force Cnst:      1.5433                25.5264                 8.1730
 Red. Mass:       1.5294                13.2520                 1.0637
 IR Intens:        0.491                708.312                157.686

 STANDARD THERMODYNAMIC QUANTITIES AT   298.15 K  AND     1.00 ATM

   This Molecule has  0 Imaginary Frequencies
   Zero point vibrational energy:       12.822 kcal/mol

   Atom    1 Element C  Has Mass   12.00000
   Atom    2 Element O  Has Mass   15.99491
   Atom    3 Element O  Has Mass   15.99491
   Atom    4 Element H  Has Mass    1.00783
   Molecular Mass:    44.997650 amu
   Principal axes and moments of inertia in amu*Bohr^2:
                             1           2           3
    Eigenvalues --       12.32922   152.89252   165.22173
          X               0.12995     0.69303     0.70910
          Y              -0.55819     0.64220    -0.52535
          Z               0.81947     0.32755    -0.47029
   Rotational Symmetry Number is   1
   The Molecule is an Asymmetric Top
   Translational Enthalpy:        0.889 kcal/mol
   Rotational Enthalpy:           0.889 kcal/mol
   Vibrational Enthalpy:         13.061 kcal/mol
   gas constant (RT):             0.592 kcal/mol
   Translational Entropy:        37.338  cal/mol.K
   Rotational Entropy:           20.371  cal/mol.K
   Vibrational Entropy:           1.065  cal/mol.K

   Total Enthalpy:               15.431 kcal/mol
   Total Entropy:                58.774  cal/mol.K
 Total job time:  290.23s(wall), 2235.18s(cpu)
        *  Thank you very much for using Q-Chem.  Have a nice day.  *
