 Q-Chem 5.4, Q-Chem, Inc., Pleasanton, CA (2021)
 Q-Chem 5.4.1 for Intel X86 EM64T Linux

User input:
--------------------------------------------------------------
$molecule
0 2
C        -0.7264086093   -0.6702611369    0.3710498677
O        -0.8918688681   -1.6616943626    1.2284492446
O        -1.2592468052   -0.4519952726   -0.6766610984
H        -1.5777131174   -2.2801044278    0.8872282862
$end

$rem
BASIS = 6-311++G(2df,2p)
GUI = 2
JOB_TYPE = Optimization
METHOD = wB97M-V
SCF_ALGORITHM = DIIS_GDM
MAX_SCF_CYCLES = 400
GEOM_OPT_MAX_CYCLES = 150
SCF_CONVERGENCE = 7
THRESH = 12
UNRESTRICTED = 1
Solvent_method = SMD
$end
--------------------------------------------------------------

   15    -189.1210335700      6.67e-08  Convergence criterion met
 Total energy in the final basis set =     -189.1123539051
   14    -189.1213537155      9.45e-08  Convergence criterion met
 Total energy in the final basis set =     -189.1126248688
   15    -189.1213868426      2.68e-08  Convergence criterion met
 Total energy in the final basis set =     -189.1126399603
   15    -189.1213906857      2.93e-08  Convergence criterion met
 Total energy in the final basis set =     -189.1126408381

             Standard Nuclear Orientation (Angstroms)
    I     Atom           X                Y                Z
 ----------------------------------------------------------------
    1      C      -0.7331289090    -0.6760306448     0.3672980418
    2      O      -0.8952841265    -1.6586837139     1.2200097559
    3      O      -1.2525592068    -0.4452543372    -0.6740821840
    4      H      -1.5742651576    -2.2840865039     0.8968406863
 ----------------------------------------------------------------

   15    -189.1213930363      2.94e-08  Convergence criterion met
 Total energy in the final basis set =     -189.1126410483
 Final energy is   -189.112641048342
 **  OPTIMIZATION CONVERGED  **

                    Orbital Energies (a.u.)
 --------------------------------------------------------------

 Alpha MOs
 -- Occupied --
-19.4107 -19.3812 -10.4978  -1.2740  -1.2016  -0.7732  -0.6457  -0.6116
 -0.5915  -0.5011  -0.4677  -0.3391

 Beta MOs
 -- Occupied --
-19.4075 -19.3740 -10.4861  -1.2618  -1.1878  -0.7505  -0.6340  -0.5831
 -0.5809  -0.4714  -0.4636

          Ground-State Mulliken Net Atomic Charges

     Atom                 Charge (a.u.)    Spin (a.u.)
  --------------------------------------------------------
      1 C                     0.188072       0.740117
      2 O                    -0.237830      -0.002193
      3 O                    -0.312412       0.210013
      4 H                     0.362169       0.052063
  --------------------------------------------------------
  Sum of atomic charges =     0.000000

                    Cartesian Multipole Moments
 -----------------------------------------------------------------
    Charge (ESU x 10^10)
                 0.0000
    Dipole Moment (Debye)
         X      -0.9953      Y      -2.4016      Z       1.1884
       Tot       2.8584
    Quadrupole Moments (Debye-Ang)
        XX     -14.3903     XY       5.2818     YY     -10.1509
        XZ      -3.2292     YZ      -1.0234     ZZ     -19.5109

 Total job time:  53.23s(wall), 406.94s(cpu)
        *  Thank you very much for using Q-Chem.  Have a nice day.  *
