 Q-Chem 5.4, Q-Chem, Inc., Pleasanton, CA (2021)
 Q-Chem 5.4.1 for Intel X86 EM64T Linux

User input:
--------------------------------------------------------------
$molecule
0 2
O        -1.7005575682    1.7829465742    0.6678097587
H        -0.9876783031    2.4000545673    0.4231752626
$end

$rem
BASIS = def2-TZVPD
JOB_TYPE = SP
METHOD = wB97M-V
SCF_ALGORITHM = DIIS_GDM
MAX_SCF_CYCLES = 400
SCF_CONVERGENCE = 7
THRESH = 12
Solvent_method = SMD
$end
--------------------------------------------------------------

             Standard Nuclear Orientation (Angstroms)
    I     Atom           X                Y                Z
 ----------------------------------------------------------------
    1      O      -1.7005575682     1.7829465742     0.6678097587
    2      H      -0.9876783031     2.4000545673     0.4231752626
 ----------------------------------------------------------------

   28     -75.7500129933      8.01e-08  Convergence criterion met
 Total energy in the final basis set =      -75.7488360058

                    Orbital Energies (a.u.)
 --------------------------------------------------------------

 Alpha MOs
 -- Occupied --
-19.4019  -1.1406  -0.5895  -0.5193  -0.4634

 Beta MOs
 -- Occupied --
-19.3775  -1.0691  -0.5595  -0.4310

          Ground-State Mulliken Net Atomic Charges

     Atom                 Charge (a.u.)    Spin (a.u.)
  --------------------------------------------------------
      1 O                    -0.402216       1.018096
      2 H                     0.402216      -0.018096
  --------------------------------------------------------
  Sum of atomic charges =     0.000000

                    Cartesian Multipole Moments
 -----------------------------------------------------------------
    Charge (ESU x 10^10)
                 0.0000
    Dipole Moment (Debye)
         X       1.5379      Y       1.3314      Z      -0.5277
       Tot       2.1015
    Quadrupole Moments (Debye-Ang)
        XX     -10.6534     XY       1.8702     YY      -1.1124
        XZ       1.6923     YZ      -0.3387     ZZ      -6.2418

 Total job time:  11.64s(wall), 42.22s(cpu)
        *  Thank you very much for using Q-Chem.  Have a nice day.  *
