 Q-Chem 5.4, Q-Chem, Inc., Pleasanton, CA (2021)
 Q-Chem 5.4.1 for Intel X86 EM64T Linux

User input:
--------------------------------------------------------------
$molecule
0 2
H        -1.9451317181   -1.0509905375   -0.9918420804
C        -0.8743887599   -0.5180439156    0.5240076242
O        -0.8111264072   -1.7425692644    1.1472768402
O        -1.1633289644   -0.5095861474   -0.8210477070
H        -1.6029986037   -2.2567548332    0.9421208132
H        -0.0257258467    0.1088140978    0.7643269099
$end

$rem
BASIS = 6-311++G(2df,2p)
GUI = 2
JOB_TYPE = Frequency
METHOD = wB97M-V
SOLVENT_METHOD = SMD
SCF_ALGORITHM = DIIS_GDM
MAX_SCF_CYCLES = 400
SCF_CONVERGENCE = 7
THRESH = 12
UNRESTRICTED = 1
SYMMETRY_IGNORE = 1
$end
--------------------------------------------------------------

   14    -190.3101135728      9.50e-08  Convergence criterion met
 Total energy in the final basis set =     -190.3041386908
   13    -190.3101126997      3.65e-08  Convergence criterion met
 Total energy in the final basis set =     -190.3041382290
   13    -190.3101132359      1.97e-08  Convergence criterion met
 Total energy in the final basis set =     -190.3041379424
   13    -190.3101131208      4.48e-08  Convergence criterion met
 Total energy in the final basis set =     -190.3041383751
   13    -190.3101134341      3.38e-08  Convergence criterion met
 Total energy in the final basis set =     -190.3041384154
   12    -190.3101125349      7.26e-08  Convergence criterion met
 Total energy in the final basis set =     -190.3041385091
   13    -190.3101143595      4.51e-08  Convergence criterion met
 Total energy in the final basis set =     -190.3041386211
   12    -190.3101123261      9.95e-08  Convergence criterion met
 Total energy in the final basis set =     -190.3041385243
   13    -190.3101132633      4.72e-08  Convergence criterion met
 Total energy in the final basis set =     -190.3041387142
   13    -190.3101128927      3.77e-08  Convergence criterion met
 Total energy in the final basis set =     -190.3041381685
   13    -190.3101134589      3.19e-08  Convergence criterion met
 Total energy in the final basis set =     -190.3041384156
   13    -190.3101131863      3.23e-08  Convergence criterion met
 Total energy in the final basis set =     -190.3041384213
   12    -190.3101134131      9.24e-08  Convergence criterion met
 Total energy in the final basis set =     -190.3041384123
   12    -190.3101134859      9.56e-08  Convergence criterion met
 Total energy in the final basis set =     -190.3041386489
   13    -190.3101134084      3.65e-08  Convergence criterion met
 Total energy in the final basis set =     -190.3041384811

                    Orbital Energies (a.u.)
 --------------------------------------------------------------

 Alpha MOs
 -- Occupied --
-19.3637 -19.3636 -10.4354  -1.2169  -1.1533  -0.7927  -0.6686  -0.6005
 -0.5638  -0.5029  -0.5021  -0.4373  -0.2709

 Beta MOs
 -- Occupied --
-19.3603 -19.3602 -10.4224  -1.2069  -1.1449  -0.7746  -0.6614  -0.5881
 -0.5340  -0.4881  -0.4854  -0.4242

          Ground-State Mulliken Net Atomic Charges

     Atom                 Charge (a.u.)    Spin (a.u.)
  --------------------------------------------------------
      1 H                     0.346849      -0.007565
      2 C                    -0.126187       0.872310
      3 O                    -0.385986       0.078516
      4 O                    -0.386426       0.079065
      5 H                     0.346572      -0.007455
      6 H                     0.205177      -0.014872
  --------------------------------------------------------
  Sum of atomic charges =    -0.000000

                    Cartesian Multipole Moments
 -----------------------------------------------------------------
    Charge (ESU x 10^10)
                -0.0000
    Dipole Moment (Debye)
         X      -2.3339      Y      -1.5996      Z      -0.5747
       Tot       2.8873
    Quadrupole Moments (Debye-Ang)
        XX     -10.9583     XY       8.2048     YY     -14.6768
        XZ       1.4975     YZ       2.0841     ZZ     -21.4732

             Standard Nuclear Orientation (Angstroms)
    I     Atom           X                Y                Z
 ----------------------------------------------------------------
    1      H      -1.9451317181    -1.0509905375    -0.9918420804
    2      C      -0.8743887599    -0.5180439156     0.5240076242
    3      O      -0.8111264072    -1.7425692644     1.1472768402
    4      O      -1.1633289644    -0.5095861474    -0.8210477070
    5      H      -1.6029986037    -2.2567548332     0.9421208132
    6      H      -0.0257258467     0.1088140978     0.7643269099
 ----------------------------------------------------------------

 Frequency:       242.30                 412.80                 548.05
 Force Cnst:      0.0370                 0.1226                 0.9703
 Red. Mass:       1.0710                 1.2211                 5.4830
 IR Intens:       51.761                346.196                 55.549
 Frequency:       900.92                1050.97                1098.66
 Force Cnst:      0.6357                 4.3406                 2.6556
 Red. Mass:       1.3294                 6.6698                 3.7341
 IR Intens:       50.040                123.321                675.444
 Frequency:      1170.86                1380.46                1393.66
 Force Cnst:      1.0011                 1.4916                 1.3296
 Red. Mass:       1.2394                 1.3285                 1.1618
 IR Intens:       22.115                  3.062                118.190
 Frequency:      3195.77                3791.83                3795.87
 Force Cnst:      6.5492                 9.0294                 9.0506
 Red. Mass:       1.0884                 1.0659                 1.0661
 IR Intens:       20.553                298.499                 30.029

 STANDARD THERMODYNAMIC QUANTITIES AT   298.15 K  AND     1.00 ATM

   This Molecule has  0 Imaginary Frequencies
   Zero point vibrational energy:       27.136 kcal/mol

   Atom    1 Element H  Has Mass    1.00783
   Atom    2 Element C  Has Mass   12.00000
   Atom    3 Element O  Has Mass   15.99491
   Atom    4 Element O  Has Mass   15.99491
   Atom    5 Element H  Has Mass    1.00783
   Atom    6 Element H  Has Mass    1.00783
   Molecular Mass:    47.013310 amu
   Principal axes and moments of inertia in amu*Bohr^2:
                             1           2           3
    Eigenvalues --       32.93647   170.14013   197.12707
          X               0.14979     0.44661     0.88210
          Y              -0.52479     0.79203    -0.31189
          Z               0.83795     0.41620    -0.35301
   Rotational Symmetry Number is   1
   The Molecule is an Asymmetric Top
   Translational Enthalpy:        0.889 kcal/mol
   Rotational Enthalpy:           0.889 kcal/mol
   Vibrational Enthalpy:         27.845 kcal/mol
   gas constant (RT):             0.592 kcal/mol
   Translational Entropy:        37.468  cal/mol.K
   Rotational Entropy:           21.629  cal/mol.K
   Vibrational Entropy:           3.613  cal/mol.K

   Total Enthalpy:               30.215 kcal/mol
   Total Entropy:                62.710  cal/mol.K
 Total job time:  563.23s(wall), 4345.61s(cpu)
        *  Thank you very much for using Q-Chem.  Have a nice day.  *
