 Q-Chem 5.4, Q-Chem, Inc., Pleasanton, CA (2021)
 Q-Chem 5.4.1 for Intel X86 EM64T Linux

User input:
--------------------------------------------------------------
$molecule
0 2
H        -1.9482109864   -1.0479476150   -0.9925275442
C        -0.8866346159   -0.5162240520    0.5272535622
O        -0.8018558081   -1.7468677360    1.1520106482
O        -1.1557843111   -0.5069019080   -0.8292367313
H        -1.6045891373   -2.2568876969    0.9449850253
H        -0.0256254412    0.1056984077    0.7623574398
$end

$rem
BASIS = 6-311++G(2df,2p)
GUI = 2
JOB_TYPE = Optimization
METHOD = wB97M-V
SCF_ALGORITHM = DIIS_GDM
MAX_SCF_CYCLES = 400
GEOM_OPT_MAX_CYCLES = 150
SCF_CONVERGENCE = 7
THRESH = 12
UNRESTRICTED = 1
Solvent_method = SMD
$end
--------------------------------------------------------------

   14    -190.3096227548      8.78e-08  Convergence criterion met
 Total energy in the final basis set =     -190.3038246177
   12    -190.3100371251      9.01e-08  Convergence criterion met
 Total energy in the final basis set =     -190.3041183387
   12    -190.3101110042      9.14e-08  Convergence criterion met
 Total energy in the final basis set =     -190.3041362522
   13    -190.3101119881      3.10e-08  Convergence criterion met
 Total energy in the final basis set =     -190.3041385193

             Standard Nuclear Orientation (Angstroms)
    I     Atom           X                Y                Z
 ----------------------------------------------------------------
    1      H      -1.9451317181    -1.0509905375    -0.9918420804
    2      C      -0.8743887599    -0.5180439156     0.5240076242
    3      O      -0.8111264072    -1.7425692644     1.1472768402
    4      O      -1.1633289644    -0.5095861474    -0.8210477070
    5      H      -1.6029986037    -2.2567548332     0.9421208132
    6      H      -0.0257258467     0.1088140978     0.7643269099
 ----------------------------------------------------------------

   13    -190.3101135726      3.21e-08  Convergence criterion met
 Total energy in the final basis set =     -190.3041386906
 Final energy is   -190.304138690580
 **  OPTIMIZATION CONVERGED  **

                    Orbital Energies (a.u.)
 --------------------------------------------------------------

 Alpha MOs
 -- Occupied --
-19.3637 -19.3636 -10.4354  -1.2169  -1.1533  -0.7927  -0.6686  -0.6005
 -0.5639  -0.5029  -0.5021  -0.4373  -0.2709

 Beta MOs
 -- Occupied --
-19.3602 -19.3602 -10.4224  -1.2069  -1.1449  -0.7746  -0.6614  -0.5881
 -0.5340  -0.4881  -0.4854  -0.4242

          Ground-State Mulliken Net Atomic Charges

     Atom                 Charge (a.u.)    Spin (a.u.)
  --------------------------------------------------------
      1 H                     0.346881      -0.007566
      2 C                    -0.126148       0.872337
      3 O                    -0.385981       0.078489
      4 O                    -0.386467       0.079060
      5 H                     0.346560      -0.007451
      6 H                     0.205154      -0.014868
  --------------------------------------------------------
  Sum of atomic charges =     0.000000

                    Cartesian Multipole Moments
 -----------------------------------------------------------------
    Charge (ESU x 10^10)
                 0.0000
    Dipole Moment (Debye)
         X      -2.3340      Y      -1.5993      Z      -0.5744
       Tot       2.8871
    Quadrupole Moments (Debye-Ang)
        XX     -10.9584     XY       8.2046     YY     -14.6779
        XZ       1.4985     YZ       2.0851     ZZ     -21.4720

 Total job time:  70.41s(wall), 538.89s(cpu)
        *  Thank you very much for using Q-Chem.  Have a nice day.  *
