 Q-Chem 5.4, Q-Chem, Inc., Pleasanton, CA (2021)
 Q-Chem 5.4.1 for Intel X86 EM64T Linux

User input:
--------------------------------------------------------------
$molecule
-1 2
C         0.6332016938    0.2492218888    0.7584201423
O         1.4025855345   -0.2466265649    1.5928966321
H        -1.9375709960   -1.0123331655   -0.8866207339
C        -0.5876356319   -0.6521105713    0.4044916578
O        -0.8569532521   -1.6133086963    1.1906387653
O        -1.1874161180   -0.4200235349   -0.6924266891
O         0.6788790895    1.3139223991    0.1285257991
O        -1.4798178908    1.1120009332    2.5219901422
O        -2.4778756125    0.8597842175    1.6870392901
H        -1.6207131163   -2.1609506057    0.9312915941
$end

$rem
BASIS = def2-TZVPD
JOB_TYPE = SP
METHOD = wB97M-V
SCF_ALGORITHM = DIIS_GDM
MAX_SCF_CYCLES = 400
SCF_CONVERGENCE = 7
THRESH = 12
Solvent_method = SMD
$end
--------------------------------------------------------------

             Standard Nuclear Orientation (Angstroms)
    I     Atom           X                Y                Z
 ----------------------------------------------------------------
    1      C       0.6332016938     0.2492218888     0.7584201423
    2      O       1.4025855345    -0.2466265649     1.5928966321
    3      H      -1.9375709960    -1.0123331655    -0.8866207339
    4      C      -0.5876356319    -0.6521105713     0.4044916578
    5      O      -0.8569532521    -1.6133086963     1.1906387653
    6      O      -1.1874161180    -0.4200235349    -0.6924266891
    7      O       0.6788790895     1.3139223991     0.1285257991
    8      O      -1.4798178908     1.1120009332     2.5219901422
    9      O      -2.4778756125     0.8597842175     1.6870392901
   10      H      -1.6207131163    -2.1609506057     0.9312915941
 ----------------------------------------------------------------

   29    -528.8756488074      2.39e-08  Convergence criterion met
 Total energy in the final basis set =     -528.8674988054

                    Orbital Energies (a.u.)
 --------------------------------------------------------------

 Alpha MOs
 -- Occupied --
-19.4367 -19.4363 -19.3355 -19.3352 -19.3046 -19.3045 -10.5486 -10.4737
 -1.3232  -1.2421  -1.2140  -1.1936  -1.1094  -0.8668  -0.8624  -0.7731
 -0.7097  -0.6361  -0.6284  -0.5731  -0.5530  -0.5405  -0.5348  -0.5223
 -0.5184  -0.5033  -0.4893  -0.3918  -0.3882  -0.3828  -0.3226  -0.2914

 Beta MOs
 -- Occupied --
-19.4367 -19.4363 -19.3211 -19.3210 -19.3046 -19.3045 -10.5486 -10.4737
 -1.3232  -1.2421  -1.1939  -1.1845  -1.1094  -0.8668  -0.8201  -0.7731
 -0.7097  -0.6356  -0.6284  -0.5730  -0.5530  -0.5390  -0.5320  -0.5063
 -0.4977  -0.4749  -0.4353  -0.3915  -0.3880  -0.3827  -0.2723

          Ground-State Mulliken Net Atomic Charges

     Atom                 Charge (a.u.)    Spin (a.u.)
  --------------------------------------------------------
      1 C                     0.631279       0.006140
      2 O                    -0.780099      -0.000286
      3 H                     0.432591       0.000458
      4 C                     0.671961      -0.007054
      5 O                    -0.322098      -0.000280
      6 O                    -0.317802      -0.000191
      7 O                    -0.781716      -0.000217
      8 O                    -0.475998       0.503234
      9 O                    -0.485228       0.498307
     10 H                     0.427110      -0.000113
  --------------------------------------------------------
  Sum of atomic charges =    -1.000000

                    Cartesian Multipole Moments
 -----------------------------------------------------------------
    Charge (ESU x 10^10)
                -4.8032
    Dipole Moment (Debye)
         X      -2.3512      Y     -13.1143      Z     -13.2002
       Tot      18.7552
    Quadrupole Moments (Debye-Ang)
        XX     -61.1175     XY      18.7059     YY     -47.8496
        XZ      11.6966     YZ      -8.8788     ZZ     -74.4725

 Total job time:  556.63s(wall), 2044.90s(cpu)
        *  Thank you very much for using Q-Chem.  Have a nice day.  *
