 Q-Chem 5.4, Q-Chem, Inc., Pleasanton, CA (2021)
 Q-Chem 5.4.1 for Intel X86 EM64T Linux

User input:
--------------------------------------------------------------
$molecule
-1 2
C         0.2893629763    0.0315406487    0.5566337965
O         0.6541680611   -1.1565349345    0.4174602413
C        -1.2484564108    0.2451230646    0.4406601187
O        -1.9097781564   -0.9131982675    0.1604466214
O        -1.5417753257    1.2702625386   -0.4185445904
O         0.9759381516    1.0444137214    0.7745928551
O        -1.7384232270    0.7473130169    1.7662032033
O        -1.5108119417   -0.1144755690    2.7119986494
H        -1.2217318192   -1.6053856353    0.1817768981
H        -2.4856635083    1.2394733162   -0.6302879932
$end

$rem
BASIS = def2-TZVPPD
JOB_TYPE = SP
METHOD = wB97M-V
SCF_ALGORITHM = DIIS_GDM
MAX_SCF_CYCLES = 400
SCF_CONVERGENCE = 7
THRESH = 12
Solvent_method = SMD
$end
--------------------------------------------------------------

             Standard Nuclear Orientation (Angstroms)
    I     Atom           X                Y                Z
 ----------------------------------------------------------------
    1      C       0.2893629763     0.0315406487     0.5566337965
    2      O       0.6541680611    -1.1565349345     0.4174602413
    3      C      -1.2484564108     0.2451230646     0.4406601187
    4      O      -1.9097781564    -0.9131982675     0.1604466214
    5      O      -1.5417753257     1.2702625386    -0.4185445904
    6      O       0.9759381516     1.0444137214     0.7745928551
    7      O      -1.7384232270     0.7473130169     1.7662032033
    8      O      -1.5108119417    -0.1144755690     2.7119986494
    9      H      -1.2217318192    -1.6053856353     0.1817768981
   10      H      -2.4856635083     1.2394733162    -0.6302879932
 ----------------------------------------------------------------

   21    -528.9171829316      6.54e-08  Convergence criterion met
 Total energy in the final basis set =     -528.9108650460

                    Orbital Energies (a.u.)
 --------------------------------------------------------------

 Alpha MOs
 -- Occupied --
-19.4562 -19.4160 -19.3642 -19.3578 -19.3019 -19.2969 -10.5107 -10.4557
 -1.3461  -1.2350  -1.1812  -1.1630  -1.0969  -0.9918  -0.8085  -0.7164
 -0.6745  -0.6650  -0.6112  -0.6066  -0.5873  -0.5458  -0.5272  -0.5249
 -0.5089  -0.4756  -0.4345  -0.4138  -0.3989  -0.3836  -0.3740  -0.3656

 Beta MOs
 -- Occupied --
-19.4459 -19.3971 -19.3643 -19.3577 -19.3017 -19.2969 -10.5111 -10.4556
 -1.3219  -1.2315  -1.1810  -1.1629  -1.0968  -0.9569  -0.8021  -0.7104
 -0.6710  -0.6547  -0.6024  -0.5776  -0.5507  -0.5412  -0.5249  -0.5180
 -0.5036  -0.4695  -0.4316  -0.3939  -0.3835  -0.3739  -0.3640

          Ground-State Mulliken Net Atomic Charges

     Atom                 Charge (a.u.)    Spin (a.u.)
  --------------------------------------------------------
      1 C                     0.525746       0.007659
      2 O                    -0.809758       0.005036
      3 C                     1.028412      -0.009712
      4 O                    -0.566487       0.001960
      5 O                    -0.459758       0.000279
      6 O                    -0.804946       0.000385
      7 O                    -0.022437       0.300434
      8 O                    -0.362609       0.692838
      9 H                     0.280724      -0.000814
     10 H                     0.191112       0.001934
  --------------------------------------------------------
  Sum of atomic charges =    -1.000000

                    Cartesian Multipole Moments
 -----------------------------------------------------------------
    Charge (ESU x 10^10)
                -4.8032
    Dipole Moment (Debye)
         X      -3.5921      Y      -0.9687      Z      -5.7805
       Tot       6.8742
    Quadrupole Moments (Debye-Ang)
        XX     -51.4547     XY      -3.0557     YY     -54.3889
        XZ       3.9098     YZ      -1.8713     ZZ     -57.6486

 Total job time:  520.46s(wall), 2071.34s(cpu)
        *  Thank you very much for using Q-Chem.  Have a nice day.  *
