 Q-Chem 5.4, Q-Chem, Inc., Pleasanton, CA (2021)
 Q-Chem 5.4.1 for Intel X86 EM64T Linux

User input:
--------------------------------------------------------------
$molecule
0 1
C         1.8235784383   -0.0637334893    0.0002473030
O         2.3417852248    1.1510612460    0.0007760691
O         2.4376891661   -1.0978774708    0.0006843887
C         0.2881145663   -0.0022133723   -0.0008982110
O        -0.3258508336    1.0319556106   -0.0015152341
O        -0.2300177268   -1.2169567043   -0.0008235433
H         3.3109425424    1.0843720479    0.0015034206
H        -1.1991530757   -1.1507164572   -0.0014270296
$end

$rem
BASIS = 6-311++G(2df,2p)
GUI = 2
JOB_TYPE = Frequency
METHOD = wB97M-V
SOLVENT_METHOD = SMD
SCF_ALGORITHM = DIIS_GDM
MAX_SCF_CYCLES = 400
SCF_CONVERGENCE = 7
THRESH = 12
SYMMETRY_IGNORE = 1
$end
--------------------------------------------------------------

   14    -378.3916413117      2.86e-08  Convergence criterion met
 Total energy in the final basis set =     -378.3823177175
   13    -378.3916456448      5.53e-08  Convergence criterion met
 Total energy in the final basis set =     -378.3823164899
   13    -378.3916344515      6.26e-08  Convergence criterion met
 Total energy in the final basis set =     -378.3823164368
   13    -378.3916425579      5.84e-08  Convergence criterion met
 Total energy in the final basis set =     -378.3823161259
   13    -378.3916369221      4.90e-08  Convergence criterion met
 Total energy in the final basis set =     -378.3823162379
   14    -378.3916409881      3.33e-08  Convergence criterion met
 Total energy in the final basis set =     -378.3823173913
   14    -378.3916409577      5.93e-08  Convergence criterion met
 Total energy in the final basis set =     -378.3823173702
   13    -378.3916376988      7.23e-08  Convergence criterion met
 Total energy in the final basis set =     -378.3823176948
   13    -378.3916412898      2.12e-08  Convergence criterion met
 Total energy in the final basis set =     -378.3823176959
   13    -378.3916396116      5.21e-08  Convergence criterion met
 Total energy in the final basis set =     -378.3823167000
   13    -378.3916412212      5.87e-08  Convergence criterion met
 Total energy in the final basis set =     -378.3823169443
   13    -378.3916409018      4.09e-08  Convergence criterion met
 Total energy in the final basis set =     -378.3823177379
   13    -378.3916415440      2.95e-08  Convergence criterion met
 Total energy in the final basis set =     -378.3823175192
   13    -378.3916412888      2.14e-08  Convergence criterion met
 Total energy in the final basis set =     -378.3823176946
   13    -378.3916412909      2.10e-08  Convergence criterion met
 Total energy in the final basis set =     -378.3823176963

                    Orbital Energies (a.u.)
 --------------------------------------------------------------

 Alpha MOs
 -- Occupied --
-19.4009 -19.4009 -19.3549 -19.3549 -10.5124 -10.5123  -1.2812  -1.2559
 -1.1900  -1.1731  -0.8535  -0.7546  -0.6572  -0.6344  -0.6278  -0.6176
 -0.5625  -0.5588  -0.5205  -0.4637  -0.4595  -0.4507  -0.3966

          Ground-State Mulliken Net Atomic Charges

     Atom                 Charge (a.u.)
  ----------------------------------------
      1 C                     0.367383
      2 O                    -0.284368
      3 O                    -0.454599
      4 C                     0.367361
      5 O                    -0.454580
      6 O                    -0.284317
      7 H                     0.371558
      8 H                     0.371562
  ----------------------------------------
  Sum of atomic charges =     0.000000

                    Cartesian Multipole Moments
 -----------------------------------------------------------------
    Charge (ESU x 10^10)
                 0.0000
    Dipole Moment (Debye)
         X      -0.0010      Y      -0.0011      Z      -0.0015
       Tot       0.0021
    Quadrupole Moments (Debye-Ang)
        XX     -23.7145     XY      11.7218     YY     -40.9232
        XZ       0.0086     YZ       0.0117     ZZ     -32.3165

             Standard Nuclear Orientation (Angstroms)
    I     Atom           X                Y                Z
 ----------------------------------------------------------------
    1      C       1.8235784383    -0.0637334893     0.0002473030
    2      O       2.3417852248     1.1510612460     0.0007760691
    3      O       2.4376891661    -1.0978774708     0.0006843887
    4      C       0.2881145663    -0.0022133723    -0.0008982110
    5      O      -0.3258508336     1.0319556106    -0.0015152341
    6      O      -0.2300177268    -1.2169567043    -0.0008235433
    7      H       3.3109425424     1.0843720479     0.0015034206
    8      H      -1.1991530757    -1.1507164572    -0.0014270296
 ----------------------------------------------------------------

 Frequency:        44.79                 271.23                 434.86
 Force Cnst:      0.0139                 0.3773                 0.9377
 Red. Mass:      11.7956                 8.7059                 8.4164
 IR Intens:       10.450                 11.681                  0.014
 Frequency:       436.55                 535.42                 604.36
 Force Cnst:      0.2808                 2.1216                 0.2392
 Red. Mass:       2.5010                12.5613                 1.1113
 IR Intens:       23.820                  0.000                  0.028
 Frequency:       635.01                 645.24                 810.59
 Force Cnst:      0.8850                 0.3913                 1.4774
 Red. Mass:       3.7251                 1.5950                 3.8162
 IR Intens:      232.906                459.012                  0.000
 Frequency:       850.57                1130.88                1191.96
 Force Cnst:      5.2359                 2.8753                 1.5165
 Red. Mass:      12.2836                 3.8159                 1.8117
 IR Intens:        0.000                932.065                  0.004
 Frequency:      1321.80                1435.43                1758.74
 Force Cnst:      1.8403                 5.0494                22.9791
 Red. Mass:       1.7878                 4.1594                12.6089
 IR Intens:       80.862                  0.000               1552.561
 Frequency:      1814.23                3733.91                3734.58
 Force Cnst:     20.9834                 8.7467                 8.7509
 Red. Mass:      10.8203                 1.0648                 1.0649
 IR Intens:        0.012                296.067                210.683

 STANDARD THERMODYNAMIC QUANTITIES AT   298.15 K  AND     1.00 ATM

   This Molecule has  0 Imaginary Frequencies
   Zero point vibrational energy:       30.579 kcal/mol

   Atom    1 Element C  Has Mass   12.00000
   Atom    2 Element O  Has Mass   15.99491
   Atom    3 Element O  Has Mass   15.99491
   Atom    4 Element C  Has Mass   12.00000
   Atom    5 Element O  Has Mass   15.99491
   Atom    6 Element O  Has Mass   15.99491
   Atom    7 Element H  Has Mass    1.00783
   Atom    8 Element H  Has Mass    1.00783
   Molecular Mass:    89.995300 amu
   Principal axes and moments of inertia in amu*Bohr^2:
                             1           2           3
    Eigenvalues --      296.33369   496.56503   792.89869
          X               0.99390    -0.11028    -0.00072
          Y               0.11028     0.99390     0.00010
          Z               0.00070    -0.00018     1.00000
   Rotational Symmetry Number is   1
   The Molecule is an Asymmetric Top
   Translational Enthalpy:        0.889 kcal/mol
   Rotational Enthalpy:           0.889 kcal/mol
   Vibrational Enthalpy:         32.267 kcal/mol
   gas constant (RT):             0.592 kcal/mol
   Translational Entropy:        39.404  cal/mol.K
   Rotational Entropy:           26.259  cal/mol.K
   Vibrational Entropy:          10.606  cal/mol.K

   Total Enthalpy:               34.637 kcal/mol
   Total Entropy:                76.269  cal/mol.K
 Total job time:  1997.27s(wall), 15347.00s(cpu)
        *  Thank you very much for using Q-Chem.  Have a nice day.  *
