 Q-Chem 5.4, Q-Chem, Inc., Pleasanton, CA (2021)
 Q-Chem 5.4.1 for Intel X86 EM64T Linux

User input:
--------------------------------------------------------------
$molecule
0 1
C         1.8306193466   -0.0705715692   -0.0004053254
O         2.3354934843    1.1620369826    0.0009718252
O         2.4597507765   -1.0847965949    0.0004296659
C         0.2929632854   -0.0255321651   -0.0012310973
O        -0.3182014979    1.0221124253   -0.0016401859
O        -0.2317356641   -1.2194018091   -0.0006707906
H         3.2992743914    1.0778312111    0.0020818199
H        -1.2210758205   -1.1257870701   -0.0009887483
$end

$rem
BASIS = 6-311++G(2df,2p)
GUI = 2
JOB_TYPE = Optimization
METHOD = wB97M-V
SCF_ALGORITHM = DIIS_GDM
MAX_SCF_CYCLES = 400
GEOM_OPT_MAX_CYCLES = 150
SCF_CONVERGENCE = 7
THRESH = 12
SOLVENT_METHOD = smd
$end
--------------------------------------------------------------

   14    -378.3906000832      5.24e-08  Convergence criterion met
 Total energy in the final basis set =     -378.3812722225
   15    -378.3915307187      5.82e-08  Convergence criterion met
 Total energy in the final basis set =     -378.3822122451
   14    -378.3915894795      4.54e-08  Convergence criterion met
 Total energy in the final basis set =     -378.3822647017
   15    -378.3914798774      2.34e-08  Convergence criterion met
 Total energy in the final basis set =     -378.3821519395
   15    -378.3916295550      1.70e-08  Convergence criterion met
 Total energy in the final basis set =     -378.3823053695
   15    -378.3915073281      1.89e-08  Convergence criterion met
 Total energy in the final basis set =     -378.3821858251

             Standard Nuclear Orientation (Angstroms)
    I     Atom           X                Y                Z
 ----------------------------------------------------------------
    1      C       1.8235784383    -0.0637334893     0.0002473030
    2      O       2.3417852248     1.1510612460     0.0007760691
    3      O       2.4376891661    -1.0978774708     0.0006843887
    4      C       0.2881145663    -0.0022133723    -0.0008982110
    5      O      -0.3258508336     1.0319556106    -0.0015152341
    6      O      -0.2300177268    -1.2169567043    -0.0008235433
    7      H       3.3109425424     1.0843720479     0.0015034206
    8      H      -1.1991530757    -1.1507164572    -0.0014270296
 ----------------------------------------------------------------

   14    -378.3916413118      4.22e-08  Convergence criterion met
 Total energy in the final basis set =     -378.3823177176
 Final energy is   -378.382317717563
 **  OPTIMIZATION CONVERGED  **

                    Orbital Energies (a.u.)
 --------------------------------------------------------------

 Alpha MOs
 -- Occupied --
-19.4009 -19.4009 -19.3549 -19.3549 -10.5124 -10.5123  -1.2812  -1.2559
 -1.1900  -1.1731  -0.8535  -0.7546  -0.6572  -0.6344  -0.6278  -0.6176
 -0.5625  -0.5588  -0.5205  -0.4637  -0.4595  -0.4507  -0.3966

          Ground-State Mulliken Net Atomic Charges

     Atom                 Charge (a.u.)
  ----------------------------------------
      1 C                     0.367383
      2 O                    -0.284368
      3 O                    -0.454599
      4 C                     0.367361
      5 O                    -0.454580
      6 O                    -0.284317
      7 H                     0.371558
      8 H                     0.371561
  ----------------------------------------
  Sum of atomic charges =     0.000000

                    Cartesian Multipole Moments
 -----------------------------------------------------------------
    Charge (ESU x 10^10)
                 0.0000
    Dipole Moment (Debye)
         X      -0.0010      Y      -0.0011      Z       0.0007
       Tot       0.0017
    Quadrupole Moments (Debye-Ang)
        XX     -23.7145     XY      11.7218     YY     -40.9232
        XZ       0.0054     YZ       0.0091     ZZ     -32.3165

 Total job time:  488.99s(wall), 1907.37s(cpu)
        *  Thank you very much for using Q-Chem.  Have a nice day.  *
