 Q-Chem 5.4, Q-Chem, Inc., Pleasanton, CA (2021)
 Q-Chem 5.4.1 for Intel X86 EM64T Linux

User input:
--------------------------------------------------------------
$molecule
0 1
O        -0.6678554955    1.1020238419    0.2612852811
C        -0.3656352537   -0.2442880346    0.5330946241
O        -1.0087321239   -1.1308296264   -0.3381898993
C         1.1413976584   -0.4349469172    0.3500214906
O         1.8712152688    0.6730078684    0.4158507821
O         1.6501434675   -1.5191886229    0.2019956850
H        -1.3958858049    1.3819609322    0.8267715306
H        -1.8915177107   -1.3065397044    0.0066128236
H         1.2716528173    1.4364649447    0.4903475041
H        -0.6024757234   -0.4811881816    1.5723379780
$end

$rem
BASIS = def2-TZVP
JOB_TYPE = SP
METHOD = wB97M-V
SCF_ALGORITHM = DIIS_GDM
MAX_SCF_CYCLES = 400
SCF_CONVERGENCE = 7
THRESH = 12
Solvent_method = SMD
$end
--------------------------------------------------------------

             Standard Nuclear Orientation (Angstroms)
    I     Atom           X                Y                Z
 ----------------------------------------------------------------
    1      O      -0.6678554955     1.1020238419     0.2612852811
    2      C      -0.3656352537    -0.2442880346     0.5330946241
    3      O      -1.0087321239    -1.1308296264    -0.3381898993
    4      C       1.1413976584    -0.4349469172     0.3500214906
    5      O       1.8712152688     0.6730078684     0.4158507821
    6      O       1.6501434675    -1.5191886229     0.2019956850
    7      H      -1.3958858049     1.3819609322     0.8267715306
    8      H      -1.8915177107    -1.3065397044     0.0066128236
    9      H       1.2716528173     1.4364649447     0.4903475041
   10      H      -0.6024757234    -0.4811881816     1.5723379780
 ----------------------------------------------------------------

   15    -379.5979419367      5.15e-08  Convergence criterion met
 Total energy in the final basis set =     -379.5910189731

                    Orbital Energies (a.u.)
 --------------------------------------------------------------

 Alpha MOs
 -- Occupied --
-19.3845 -19.3557 -19.3501 -19.3334 -10.4903 -10.4638  -1.2541  -1.2041
 -1.1691  -1.1416  -0.8465  -0.7355  -0.6721  -0.6575  -0.6557  -0.5818
 -0.5610  -0.5261  -0.5140  -0.4890  -0.4424  -0.4290  -0.4238  -0.3960

          Ground-State Mulliken Net Atomic Charges

     Atom                 Charge (a.u.)
  ----------------------------------------
      1 O                    -0.522531
      2 C                     0.161759
      3 O                    -0.506348
      4 C                     0.348572
      5 O                    -0.385122
      6 O                    -0.434068
      7 H                     0.395617
      8 H                     0.388252
      9 H                     0.393334
     10 H                     0.160536
  ----------------------------------------
  Sum of atomic charges =     0.000000

                    Cartesian Multipole Moments
 -----------------------------------------------------------------
    Charge (ESU x 10^10)
                -0.0000
    Dipole Moment (Debye)
         X      -6.3206      Y       4.1373      Z       4.0635
       Tot       8.5778
    Quadrupole Moments (Debye-Ang)
        XX     -35.6530     XY       6.3201     YY     -37.5742
        XZ      -4.8167     YZ       1.0845     ZZ     -31.7724

 Total job time:  72.23s(wall), 283.16s(cpu)
        *  Thank you very much for using Q-Chem.  Have a nice day.  *
