 Q-Chem 5.4, Q-Chem, Inc., Pleasanton, CA (2021)
 Q-Chem 5.4.1 for Intel X86 EM64T Linux

User input:
--------------------------------------------------------------
$molecule
0 2
O         0.7139837603   -0.0221978848    0.0000000000
O        -0.5886126674    0.1177581209    0.0000000000
H        -0.9637405214   -0.7836068958    0.0000000000
$end

$rem
BASIS = 6-311++G(2df,2p)
GUI = 2
JOB_TYPE = Frequency
METHOD = wB97M-V
SOLVENT_METHOD = SMD
SCF_ALGORITHM = DIIS_GDM
MAX_SCF_CYCLES = 400
SCF_CONVERGENCE = 7
THRESH = 12
UNRESTRICTED = 1
SYMMETRY_IGNORE = 1
$end
--------------------------------------------------------------

   15    -150.9296198547      6.11e-08  Convergence criterion met
 Total energy in the final basis set =     -150.9285117931
   14    -150.9296193812      4.76e-08  Convergence criterion met
 Total energy in the final basis set =     -150.9285112375
   14    -150.9296185046      4.62e-08  Convergence criterion met
 Total energy in the final basis set =     -150.9285105249
   14    -150.9296199634      4.63e-08  Convergence criterion met
 Total energy in the final basis set =     -150.9285116799
   14    -150.9296196102      4.80e-08  Convergence criterion met
 Total energy in the final basis set =     -150.9285117704
   17    -150.9296198544      8.96e-08  Convergence criterion met
 Total energy in the final basis set =     -150.9285117927
   17    -150.9296198544      9.21e-08  Convergence criterion met
 Total energy in the final basis set =     -150.9285117927
   17    -150.9296190114      8.96e-08  Convergence criterion met
 Total energy in the final basis set =     -150.9285117944
   17    -150.9296198563      8.40e-08  Convergence criterion met
 Total energy in the final basis set =     -150.9285117944
   17    -150.9296190624      8.79e-08  Convergence criterion met
 Total energy in the final basis set =     -150.9285116093
   14    -150.9296201899      4.67e-08  Convergence criterion met
 Total energy in the final basis set =     -150.9285115196
   14    -150.9296191003      4.71e-08  Convergence criterion met
 Total energy in the final basis set =     -150.9285117002
   14    -150.9296191222      4.67e-08  Convergence criterion met
 Total energy in the final basis set =     -150.9285103992
   17    -150.9296198565      9.00e-08  Convergence criterion met
 Total energy in the final basis set =     -150.9285117944
   17    -150.9296198565      8.46e-08  Convergence criterion met
 Total energy in the final basis set =     -150.9285117944

                    Orbital Energies (a.u.)
 --------------------------------------------------------------

 Alpha MOs
 -- Occupied --
-19.4564 -19.4216  -1.3392  -0.9975  -0.6805  -0.6136  -0.6013  -0.4155
 -0.4085

 Beta MOs
 -- Occupied --
-19.4467 -19.4019  -1.3122  -0.9567  -0.6635  -0.5825  -0.5300  -0.3933

          Ground-State Mulliken Net Atomic Charges

     Atom                 Charge (a.u.)    Spin (a.u.)
  --------------------------------------------------------
      1 O                    -0.223630       0.705779
      2 O                    -0.135218       0.300798
      3 H                     0.358848      -0.006578
  --------------------------------------------------------
  Sum of atomic charges =    -0.000000

                    Cartesian Multipole Moments
 -----------------------------------------------------------------
    Charge (ESU x 10^10)
                -0.0000
    Dipole Moment (Debye)
         X      -2.2622      Y      -1.9568      Z      -0.0023
       Tot       2.9911
    Quadrupole Moments (Debye-Ang)
        XX     -10.7154     XY       2.0542     YY     -10.4213
        XZ       0.0024     YZ       0.0012     ZZ     -11.2302

             Standard Nuclear Orientation (Angstroms)
    I     Atom           X                Y                Z
 ----------------------------------------------------------------
    1      O       0.7139837603    -0.0221978848     0.0000000000
    2      O      -0.5886126674     0.1177581209     0.0000000000
    3      H      -0.9637405214    -0.7836068958     0.0000000000
 ----------------------------------------------------------------

 Frequency:      1261.04                1451.22                3634.70
 Force Cnst:     11.7310                 1.4183                 8.3169
 Red. Mass:      12.5208                 1.1430                 1.0685
 IR Intens:       50.666                 83.891                159.849

 STANDARD THERMODYNAMIC QUANTITIES AT   298.15 K  AND     1.00 ATM

   This Molecule has  0 Imaginary Frequencies
   Zero point vibrational energy:        9.073 kcal/mol

   Atom    1 Element O  Has Mass   15.99491
   Atom    2 Element O  Has Mass   15.99491
   Atom    3 Element H  Has Mass    1.00783
   Molecular Mass:    32.997650 amu
   Principal axes and moments of inertia in amu*Bohr^2:
                             1           2           3
    Eigenvalues --        2.87023    52.23524    55.10547
          X               0.99898     0.04520     0.00000
          Y              -0.04520     0.99898     0.00000
          Z               0.00000     0.00000     1.00000
   Rotational Symmetry Number is   1
   The Molecule is an Asymmetric Top
   Translational Enthalpy:        0.889 kcal/mol
   Rotational Enthalpy:           0.889 kcal/mol
   Vibrational Enthalpy:          9.085 kcal/mol
   gas constant (RT):             0.592 kcal/mol
   Translational Entropy:        36.413  cal/mol.K
   Rotational Entropy:           16.764  cal/mol.K
   Vibrational Entropy:           0.047  cal/mol.K

   Total Enthalpy:               11.455 kcal/mol
   Total Entropy:                53.224  cal/mol.K
 Total job time:  143.67s(wall), 1078.43s(cpu)
        *  Thank you very much for using Q-Chem.  Have a nice day.  *
