 Q-Chem 5.4, Q-Chem, Inc., Pleasanton, CA (2021)
 Q-Chem 5.4.1 for Intel X86 EM64T Linux

User input:
--------------------------------------------------------------
$molecule
-1 2
C         0.2834889382    0.0291919159    0.5552701367
O         0.6243279356   -1.1776794405    0.4424600880
C        -1.2522620540    0.2492513101    0.4381575985
O        -1.9046956335   -0.9184501086    0.1597996340
O        -1.5412102919    1.2808394601   -0.4251320540
O         0.9836940085    1.0411414991    0.7474161848
O        -1.7405201613    0.7535574079    1.7647302993
O        -1.5216041593   -0.1365212291    2.7003749254
H        -1.1715331195   -1.5815702878    0.1935974098
H        -2.4968566628    1.2487713730   -0.6157344223
$end

$rem
BASIS = 6-311++G(2df,2p)
GUI = 2
JOB_TYPE = Optimization
METHOD = wB97M-V
SCF_ALGORITHM = DIIS_GDM
MAX_SCF_CYCLES = 400
GEOM_OPT_MAX_CYCLES = 150
SCF_CONVERGENCE = 7
THRESH = 12
UNRESTRICTED = 1
Solvent_method = SMD
$end
--------------------------------------------------------------

   21    -528.8800506499      7.49e-08  Convergence criterion met
 Total energy in the final basis set =     -528.8739057483
   20    -528.8806192374      7.72e-08  Convergence criterion met
 Total energy in the final basis set =     -528.8743527602
   20    -528.8781474010      9.96e-08  Convergence criterion met
 Total energy in the final basis set =     -528.8716779911
   20    -528.8808134485      5.11e-08  Convergence criterion met
 Total energy in the final basis set =     -528.8745012330
   20    -528.8808306327      6.78e-08  Convergence criterion met
 Total energy in the final basis set =     -528.8745111050
   20    -528.8808276628      9.34e-08  Convergence criterion met
 Total energy in the final basis set =     -528.8745149167
   20    -528.8808281758      5.73e-08  Convergence criterion met
 Total energy in the final basis set =     -528.8745166676

             Standard Nuclear Orientation (Angstroms)
    I     Atom           X                Y                Z
 ----------------------------------------------------------------
    1      C       0.2893629763     0.0315406487     0.5566337965
    2      O       0.6541680611    -1.1565349345     0.4174602413
    3      C      -1.2484564108     0.2451230646     0.4406601187
    4      O      -1.9097781564    -0.9131982675     0.1604466214
    5      O      -1.5417753257     1.2702625386    -0.4185445904
    6      O       0.9759381516     1.0444137214     0.7745928551
    7      O      -1.7384232270     0.7473130169     1.7662032033
    8      O      -1.5108119417    -0.1144755690     2.7119986494
    9      H      -1.2217318192    -1.6053856353     0.1817768981
   10      H      -2.4856635083     1.2394733162    -0.6302879932
 ----------------------------------------------------------------

   20    -528.8808354625      6.33e-08  Convergence criterion met
 Total energy in the final basis set =     -528.8745175769
 Final energy is   -528.874517576949
 **  OPTIMIZATION CONVERGED  **

                    Orbital Energies (a.u.)
 --------------------------------------------------------------

 Alpha MOs
 -- Occupied --
-19.4584 -19.4185 -19.3664 -19.3603 -19.3043 -19.2994 -10.5122 -10.4575
 -1.3492  -1.2379  -1.1837  -1.1659  -1.0995  -0.9945  -0.8109  -0.7187
 -0.6767  -0.6671  -0.6134  -0.6087  -0.5894  -0.5477  -0.5292  -0.5268
 -0.5110  -0.4777  -0.4365  -0.4159  -0.4011  -0.3854  -0.3760  -0.3676

 Beta MOs
 -- Occupied --
-19.4482 -19.3996 -19.3665 -19.3602 -19.3042 -19.2994 -10.5126 -10.4573
 -1.3250  -1.2344  -1.1836  -1.1658  -1.0993  -0.9596  -0.8045  -0.7127
 -0.6732  -0.6568  -0.6044  -0.5797  -0.5527  -0.5432  -0.5269  -0.5199
 -0.5057  -0.4716  -0.4335  -0.3960  -0.3853  -0.3759  -0.3660

          Ground-State Mulliken Net Atomic Charges

     Atom                 Charge (a.u.)    Spin (a.u.)
  --------------------------------------------------------
      1 C                     0.500011       0.015678
      2 O                    -0.603109       0.003011
      3 C                     0.136896      -0.008390
      4 O                    -0.417641      -0.000008
      5 O                    -0.407552       0.000252
      6 O                    -0.631051      -0.001123
      7 O                    -0.006797       0.313147
      8 O                    -0.239202       0.677708
      9 H                     0.329315       0.000460
     10 H                     0.339130      -0.000735
  --------------------------------------------------------
  Sum of atomic charges =    -1.000000

                    Cartesian Multipole Moments
 -----------------------------------------------------------------
    Charge (ESU x 10^10)
                -4.8032
    Dipole Moment (Debye)
         X      -3.5986      Y      -0.9911      Z      -5.7995
       Tot       6.8969
    Quadrupole Moments (Debye-Ang)
        XX     -51.6150     XY      -3.0440     YY     -54.5445
        XZ       3.9513     YZ      -1.8824     ZZ     -57.8617

 Total job time:  965.05s(wall), 7481.48s(cpu)
        *  Thank you very much for using Q-Chem.  Have a nice day.  *
