 Q-Chem 5.4, Q-Chem, Inc., Pleasanton, CA (2021)
 Q-Chem 5.4.1 for Intel X86 EM64T Linux

User input:
--------------------------------------------------------------
$molecule
0 2
O        -1.7005575682    1.7829465742    0.6678097587
H        -0.9876783031    2.4000545673    0.4231752626
$end

$rem
BASIS = 6-31G(d)
JOB_TYPE = SP
METHOD = wB97M-V
SCF_ALGORITHM = DIIS_GDM
MAX_SCF_CYCLES = 400
SCF_CONVERGENCE = 7
THRESH = 12
Solvent_method = SMD
$end
--------------------------------------------------------------

             Standard Nuclear Orientation (Angstroms)
    I     Atom           X                Y                Z
 ----------------------------------------------------------------
    1      O      -1.7005575682     1.7829465742     0.6678097587
    2      H      -0.9876783031     2.4000545673     0.4231752626
 ----------------------------------------------------------------

   28     -75.7041484017      5.71e-08  Convergence criterion met
 Total energy in the final basis set =      -75.7029714143

                    Orbital Energies (a.u.)
 --------------------------------------------------------------

 Alpha MOs
 -- Occupied --
-19.4077  -1.1247  -0.5737  -0.4998  -0.4422

 Beta MOs
 -- Occupied --
-19.3838  -1.0546  -0.5436  -0.4099

          Ground-State Mulliken Net Atomic Charges

     Atom                 Charge (a.u.)    Spin (a.u.)
  --------------------------------------------------------
      1 O                    -0.463647       1.030754
      2 H                     0.463647      -0.030754
  --------------------------------------------------------
  Sum of atomic charges =     0.000000

                    Cartesian Multipole Moments
 -----------------------------------------------------------------
    Charge (ESU x 10^10)
                 0.0000
    Dipole Moment (Debye)
         X       1.5475      Y       1.3396      Z      -0.5310
       Tot       2.1145
    Quadrupole Moments (Debye-Ang)
        XX     -10.2797     XY       1.7244     YY      -0.6357
        XZ       1.7153     YZ      -0.3343     ZZ      -5.9291

 Total job time:  56.94s(wall), 68.91s(cpu)
        *  Thank you very much for using Q-Chem.  Have a nice day.  *
