 Q-Chem 5.4, Q-Chem, Inc., Pleasanton, CA (2021)
 Q-Chem 5.4.1 for Intel X86 EM64T Linux

User input:
--------------------------------------------------------------
$molecule
0 2
O        -0.4628443119    1.4062765168   -0.3338263962
C         0.0001780212    0.4576397441    0.5699888494
O        -0.9991184032   -0.4100108625    0.9945623619
C         1.1585387697   -0.3123762542   -0.0500006829
O         2.0694287861    0.4823349227   -0.5845675524
O         1.2217330546   -1.5180777080   -0.0011624366
H        -1.0496509914    2.0161099922    0.1307241003
H        -0.6649513630   -1.3165348992    0.9062656099
H         2.7994759286   -0.0533732966   -0.9357000371
H         0.4330768658    0.9910550084    1.4857371922
O         1.2872704652    1.6529693057    2.5904387587
H         2.0679795783    1.7852775305    2.0246481329
$end

$rem
BASIS = def2-TZVP
JOB_TYPE = SP
METHOD = wB97M-V
SCF_ALGORITHM = DIIS_GDM
MAX_SCF_CYCLES = 400
SCF_CONVERGENCE = 7
THRESH = 12
Solvent_method = SMD
$end
--------------------------------------------------------------

             Standard Nuclear Orientation (Angstroms)
    I     Atom           X                Y                Z
 ----------------------------------------------------------------
    1      O      -0.4628443119     1.4062765168    -0.3338263962
    2      C       0.0001780212     0.4576397441     0.5699888494
    3      O      -0.9991184032    -0.4100108625     0.9945623619
    4      C       1.1585387697    -0.3123762542    -0.0500006829
    5      O       2.0694287861     0.4823349227    -0.5845675524
    6      O       1.2217330546    -1.5180777080    -0.0011624366
    7      H      -1.0496509914     2.0161099922     0.1307241003
    8      H      -0.6649513630    -1.3165348992     0.9062656099
    9      H       2.7994759286    -0.0533732966    -0.9357000371
   10      H       0.4330768658     0.9910550084     1.4857371922
   11      O       1.2872704652     1.6529693057     2.5904387587
   12      H       2.0679795783     1.7852775305     2.0246481329
 ----------------------------------------------------------------

   23    -455.3435546692      4.32e-08  Convergence criterion met
 Total energy in the final basis set =     -455.3360373404

                    Orbital Energies (a.u.)
 --------------------------------------------------------------

 Alpha MOs
 -- Occupied --
-19.3944 -19.3793 -19.3600 -19.3557 -19.3472 -10.5005 -10.4759  -1.2655
 -1.2155  -1.1771  -1.1485  -1.1291  -0.8616  -0.7458  -0.6841  -0.6677
 -0.6422  -0.6120  -0.5827  -0.5639  -0.5434  -0.5270  -0.5042  -0.4852
 -0.4515  -0.4495  -0.4358  -0.4197  -0.3813

 Beta MOs
 -- Occupied --
-19.3944 -19.3591 -19.3584 -19.3546 -19.3469 -10.5005 -10.4721  -1.2650
 -1.2130  -1.1764  -1.1464  -1.0742  -0.8569  -0.7417  -0.6795  -0.6617
 -0.6363  -0.6063  -0.5704  -0.5484  -0.5424  -0.5194  -0.4837  -0.4499
 -0.4336  -0.4266  -0.4223  -0.4008

          Ground-State Mulliken Net Atomic Charges

     Atom                 Charge (a.u.)    Spin (a.u.)
  --------------------------------------------------------
      1 O                    -0.479539       0.025961
      2 C                     0.162388       0.165857
      3 O                    -0.484695       0.032800
      4 C                     0.375940       0.001856
      5 O                    -0.394935       0.000413
      6 O                    -0.414558       0.008826
      7 H                     0.395022       0.000533
      8 H                     0.373444       0.001543
      9 H                     0.403599       0.000054
     10 H                     0.174017      -0.032505
     11 O                    -0.501259       0.809959
     12 H                     0.390577      -0.015297
  --------------------------------------------------------
  Sum of atomic charges =    -0.000000

                    Cartesian Multipole Moments
 -----------------------------------------------------------------
    Charge (ESU x 10^10)
                -0.0000
    Dipole Moment (Debye)
         X       2.8963      Y       1.2063      Z      -1.5079
       Tot       3.4810
    Quadrupole Moments (Debye-Ang)
        XX     -29.1982     XY       0.9820     YY     -41.2424
        XZ      -2.0415     YZ      -0.2168     ZZ     -48.6075

 Total job time:  172.58s(wall), 671.27s(cpu)
        *  Thank you very much for using Q-Chem.  Have a nice day.  *
