 Q-Chem 5.4, Q-Chem, Inc., Pleasanton, CA (2021)
 Q-Chem 5.4.1 for Intel X86 EM64T Linux

User input:
--------------------------------------------------------------
$molecule
0 1
O        -0.6678554955    1.1020238419    0.2612852811
C        -0.3656352537   -0.2442880346    0.5330946241
O        -1.0087321239   -1.1308296264   -0.3381898993
C         1.1413976584   -0.4349469172    0.3500214906
O         1.8712152688    0.6730078684    0.4158507821
O         1.6501434675   -1.5191886229    0.2019956850
H        -1.3958858049    1.3819609322    0.8267715306
H        -1.8915177107   -1.3065397044    0.0066128236
H         1.2716528173    1.4364649447    0.4903475041
H        -0.6024757234   -0.4811881816    1.5723379780
$end

$rem
BASIS = 6-31G(d)
JOB_TYPE = SP
METHOD = wB97M-V
SCF_ALGORITHM = DIIS_GDM
MAX_SCF_CYCLES = 400
SCF_CONVERGENCE = 7
THRESH = 12
Solvent_method = SMD
$end
--------------------------------------------------------------

             Standard Nuclear Orientation (Angstroms)
    I     Atom           X                Y                Z
 ----------------------------------------------------------------
    1      O      -0.6678554955     1.1020238419     0.2612852811
    2      C      -0.3656352537    -0.2442880346     0.5330946241
    3      O      -1.0087321239    -1.1308296264    -0.3381898993
    4      C       1.1413976584    -0.4349469172     0.3500214906
    5      O       1.8712152688     0.6730078684     0.4158507821
    6      O       1.6501434675    -1.5191886229     0.2019956850
    7      H      -1.3958858049     1.3819609322     0.8267715306
    8      H      -1.8915177107    -1.3065397044     0.0066128236
    9      H       1.2716528173     1.4364649447     0.4903475041
   10      H      -0.6024757234    -0.4811881816     1.5723379780
 ----------------------------------------------------------------

   13    -379.4129265321      4.20e-08  Convergence criterion met
 Total energy in the final basis set =     -379.4060035685

                    Orbital Energies (a.u.)
 --------------------------------------------------------------

 Alpha MOs
 -- Occupied --
-19.3994 -19.3710 -19.3636 -19.3489 -10.4967 -10.4681  -1.2461  -1.1958
 -1.1601  -1.1331  -0.8387  -0.7274  -0.6641  -0.6481  -0.6468  -0.5687
 -0.5498  -0.5143  -0.5025  -0.4776  -0.4285  -0.4162  -0.4096  -0.3824

          Ground-State Mulliken Net Atomic Charges

     Atom                 Charge (a.u.)
  ----------------------------------------
      1 O                    -0.674889
      2 C                     0.244639
      3 O                    -0.663534
      4 C                     0.586844
      5 O                    -0.598594
      6 O                    -0.525316
      7 H                     0.471311
      8 H                     0.463030
      9 H                     0.480724
     10 H                     0.215784
  ----------------------------------------
  Sum of atomic charges =     0.000000

                    Cartesian Multipole Moments
 -----------------------------------------------------------------
    Charge (ESU x 10^10)
                -0.0000
    Dipole Moment (Debye)
         X      -6.2028      Y       3.9297      Z       3.9020
       Tot       8.3152
    Quadrupole Moments (Debye-Ang)
        XX     -34.5781     XY       5.8710     YY     -36.2536
        XZ      -4.6159     YZ       1.0811     ZZ     -30.9703

 Total job time:  23.25s(wall), 88.24s(cpu)
        *  Thank you very much for using Q-Chem.  Have a nice day.  *
