 Q-Chem 5.4, Q-Chem, Inc., Pleasanton, CA (2021)
 Q-Chem 5.4.1 for Intel X86 EM64T Linux

User input:
--------------------------------------------------------------
$molecule
-1 2
C         0.0335825890    0.2156391192    0.2364698461
O         1.2001413651    0.0826017418    0.8943481755
H        -1.1277621868    1.3766541534   -0.6298194523
C        -0.8393693190   -0.8929137460   -0.0274891381
O        -0.5062190370   -2.0526716429    0.3744233366
O        -1.9104150558   -0.6008046154   -0.6669935653
O        -0.2722929998    1.4647120681   -0.1745756269
H         1.6345905442    0.9437645218    0.9577898244
$end

$rem
BASIS = def2-TZVPD
JOB_TYPE = SP
METHOD = wB97M-V
SCF_ALGORITHM = DIIS_GDM
MAX_SCF_CYCLES = 400
SCF_CONVERGENCE = 7
THRESH = 12
Solvent_method = SMD
$end
--------------------------------------------------------------

             Standard Nuclear Orientation (Angstroms)
    I     Atom           X                Y                Z
 ----------------------------------------------------------------
    1      C       0.0335825890     0.2156391192     0.2364698461
    2      O       1.2001413651     0.0826017418     0.8943481755
    3      H      -1.1277621868     1.3766541534    -0.6298194523
    4      C      -0.8393693190    -0.8929137460    -0.0274891381
    5      O      -0.5062190370    -2.0526716429     0.3744233366
    6      O      -1.9104150558    -0.6008046154    -0.6669935653
    7      O      -0.2722929998     1.4647120681    -0.1745756269
    8      H       1.6345905442     0.9437645218     0.9577898244
 ----------------------------------------------------------------

   17    -378.5119465151      2.90e-08  Convergence criterion met
 Total energy in the final basis set =     -378.5039951321

                    Orbital Energies (a.u.)
 --------------------------------------------------------------

 Alpha MOs
 -- Occupied --
-19.3738 -19.3704 -19.2772 -19.2758 -10.4447 -10.4332  -1.2383  -1.1698
 -1.1506  -1.0646  -0.8192  -0.7039  -0.6664  -0.5833  -0.5801  -0.5284
 -0.5176  -0.5092  -0.4981  -0.4642  -0.3755  -0.3753  -0.3544  -0.2416

 Beta MOs
 -- Occupied --
-19.3707 -19.3672 -19.2746 -19.2732 -10.4349 -10.4326  -1.2297  -1.1628
 -1.1458  -1.0593  -0.8000  -0.6976  -0.6594  -0.5786  -0.5506  -0.5242
 -0.5133  -0.5051  -0.4806  -0.4383  -0.3694  -0.3544  -0.3510

          Ground-State Mulliken Net Atomic Charges

     Atom                 Charge (a.u.)    Spin (a.u.)
  --------------------------------------------------------
      1 C                     0.237124       0.566118
      2 O                    -0.503364       0.084093
      3 H                     0.385802      -0.002314
      4 C                     0.847331       0.085713
      5 O                    -0.890391       0.094503
      6 O                    -0.920658       0.090672
      7 O                    -0.570216       0.084439
      8 H                     0.414374      -0.003225
  --------------------------------------------------------
  Sum of atomic charges =    -1.000000

                    Cartesian Multipole Moments
 -----------------------------------------------------------------
    Charge (ESU x 10^10)
                -4.8032
    Dipole Moment (Debye)
         X       6.3608      Y       9.6238      Z       0.3545
       Tot      11.5413
    Quadrupole Moments (Debye-Ang)
        XX     -45.8454     XY      -5.5098     YY     -52.6700
        XZ      -2.4196     YZ       2.5400     ZZ     -38.1729

 Total job time:  153.03s(wall), 606.27s(cpu)
        *  Thank you very much for using Q-Chem.  Have a nice day.  *
