 Q-Chem 5.4, Q-Chem, Inc., Pleasanton, CA (2021)
 Q-Chem 5.4.1 for Intel X86 EM64T Linux

User input:
--------------------------------------------------------------
$molecule
-1 2
O        -0.5898693698    1.4364167686   -0.2011324283
C        -0.0505459724    0.4558973035    0.6364534286
O        -0.9992020981   -0.4709441896    1.0550590018
C         1.1382211719   -0.2198854210   -0.0797845773
O         2.1150602176    0.5155082449   -0.3422678855
O         1.0091565412   -1.4439638257   -0.3063138284
H        -1.2923185257    1.8935755434    0.2782478755
H        -0.6832252495   -1.3229325128    0.7021992984
H         0.3900654810    0.9778650496    1.5657085859
O         1.5169367837    1.7843143470    2.2297602170
H         2.0821964203    1.6320557921    1.4474164122
$end

$rem
BASIS = 6-311++G(2df,2p)
GUI = 2
JOB_TYPE = Frequency
METHOD = wB97M-V
SOLVENT_METHOD = SMD
SCF_ALGORITHM = DIIS_GDM
MAX_SCF_CYCLES = 400
SCF_CONVERGENCE = 7
THRESH = 12
SYMMETRY_IGNORE = 1
$end

--------------------------------------------------------------

   23    -454.8770006878      7.38e-08  Convergence criterion met
 Total energy in the final basis set =     -454.8704203321
   21    -454.8770033095      4.84e-08  Convergence criterion met
 Total energy in the final basis set =     -454.8704195784
   21    -454.8769967075      5.22e-08  Convergence criterion met
 Total energy in the final basis set =     -454.8704196915
   21    -454.8769942345      5.24e-08  Convergence criterion met
 Total energy in the final basis set =     -454.8704197492
   21    -454.8770060350      4.36e-08  Convergence criterion met
 Total energy in the final basis set =     -454.8704196781
   21    -454.8770053512      5.20e-08  Convergence criterion met
 Total energy in the final basis set =     -454.8704197116
   21    -454.8769948859      4.95e-08  Convergence criterion met
 Total energy in the final basis set =     -454.8704197216
   21    -454.8769886180      5.17e-08  Convergence criterion met
 Frequency:      -529.68                  60.97                  97.81
 Force Cnst:      0.4134                 0.0320                 0.0333
 Red. Mass:       2.5009                14.5884                 5.9076
 IR Intens:     1573.330                  6.003                 10.005
 Frequency:       113.55                 261.99                 278.24
 Force Cnst:      0.0538                 0.2716                 0.0522
 Red. Mass:       7.0800                 6.7169                 1.1453
 IR Intens:       70.285                 12.632                283.462
 Frequency:       328.95                 379.40                 420.10
 Force Cnst:      0.3354                 0.0909                 0.1497
 Red. Mass:       5.2605                 1.0713                 1.4394
 IR Intens:       25.002                187.935                 61.983
 Frequency:       469.72                 580.18                 647.93
 Force Cnst:      1.0200                 0.5291                 1.1457
 Red. Mass:       7.8467                 2.6679                 4.6321
 IR Intens:       68.714                 33.552                 77.998
 Frequency:       723.76                 815.28                 912.46
 Force Cnst:      0.4874                 3.8314                 2.3775
 Red. Mass:       1.5792                 9.7835                 4.8466
 IR Intens:       62.314                 69.488                131.151
 Frequency:      1014.97                1170.10                1192.37
 Force Cnst:      0.9305                 2.2214                 1.3837
 Red. Mass:       1.5330                 2.7538                 1.6518
 IR Intens:     2486.284                223.619                131.825
 Frequency:      1240.05                1284.46                1373.98
 Force Cnst:      1.3386                 1.5579                 3.0869
 Red. Mass:       1.4774                 1.6026                 2.7753
 IR Intens:      485.209                172.533                341.590
 Frequency:      1463.20                1597.95                1909.37
 Force Cnst:      3.6041                14.9106                 2.4264
 Red. Mass:       2.8572                 9.9110                 1.1296
 IR Intens:      266.062                848.617               2929.560
 Frequency:      3617.36                3630.71                3799.70
 Force Cnst:      8.2077                 8.2937                 9.0712
 Red. Mass:       1.0646                 1.0679                 1.0664
 IR Intens:      288.224                253.867                158.801

 STANDARD THERMODYNAMIC QUANTITIES AT   298.15 K  AND     1.00 ATM

   This Molecule has  1 Imaginary Frequencies
   Zero point vibrational energy:       42.007 kcal/mol

   Atom    1 Element O  Has Mass   15.99491
   Atom    2 Element C  Has Mass   12.00000
   Atom    3 Element O  Has Mass   15.99491
   Atom    4 Element C  Has Mass   12.00000
   Atom    5 Element O  Has Mass   15.99491
   Atom    6 Element O  Has Mass   15.99491
   Atom    7 Element H  Has Mass    1.00783
   Atom    8 Element H  Has Mass    1.00783
   Atom    9 Element H  Has Mass    1.00783
   Atom   10 Element O  Has Mass   15.99491
   Atom   11 Element H  Has Mass    1.00783
   Molecular Mass:   108.005870 amu
   Principal axes and moments of inertia in amu*Bohr^2:
                             1           2           3
    Eigenvalues --      672.65561   765.73021  1038.20585
          X               0.22101     0.96727     0.12467
          Y               0.81915    -0.11473    -0.56199
          Z               0.52929    -0.22633     0.81770
   Rotational Symmetry Number is   1
   The Molecule is an Asymmetric Top
   Translational Enthalpy:        0.889 kcal/mol
   Rotational Enthalpy:           0.889 kcal/mol
   Vibrational Enthalpy:         45.196 kcal/mol
   gas constant (RT):             0.592 kcal/mol
   Translational Entropy:        39.947  cal/mol.K
   Rotational Entropy:           27.771  cal/mol.K
   Vibrational Entropy:          20.012  cal/mol.K

   Total Enthalpy:               47.566 kcal/mol
   Total Entropy:                87.730  cal/mol.K
 Total job time:  7071.84s(wall), 54959.87s(cpu)
        *  Thank you very much for using Q-Chem.  Have a nice day.  *
 Q-Chem 5.4, Q-Chem, Inc., Pleasanton, CA (2021)
 Q-Chem 5.4.1 for Intel X86 EM64T Linux

User input:
--------------------------------------------------------------

$molecule
read
$end

$rem
JOBTYPE            rpath
SCF_GUESS          read
RPATH_MAX_CYCLES   30
BASIS = 6-311++G(2df,2p)
METHOD = wB97M-V
SOLVENT_METHOD = SMD
SCF_ALGORITHM = DIIS_GDM
SCF_CONVERGENCE = 7
THRESH = 12
$end
--------------------------------------------------------------

 Total energy in the final basis set =     -454.9233945617
   17    -454.9319744809      6.67e-08  Convergence criterion met
 Total energy in the final basis set =     -454.9239167203
   16    -454.9304241449      8.94e-08  Convergence criterion met
 Total energy in the final basis set =     -454.9223023441
   17    -454.9321662234      8.61e-08  Convergence criterion met
 Total energy in the final basis set =     -454.9240808947
   16    -454.9287590269      9.21e-08  Convergence criterion met
 Total energy in the final basis set =     -454.9209514447
   17    -454.9322011523      7.93e-08  Convergence criterion met
 Total energy in the final basis set =     -454.9241358303
   17    -454.9322335617      7.19e-08  Convergence criterion met
 Total energy in the final basis set =     -454.9241329292
   17    -454.9322318592      6.79e-08  Convergence criterion met
 Total energy in the final basis set =     -454.9241492890

                    Orbital Energies (a.u.)
 --------------------------------------------------------------

 Alpha MOs
 -- Occupied --
-19.3766 -19.3736 -19.3285 -19.2823 -19.2813 -10.4477 -10.4384  -1.2417
 -1.1741  -1.1570  -1.1350  -1.0710  -0.8228  -0.7068  -0.6702  -0.6291
 -0.5897  -0.5849  -0.5326  -0.5212  -0.5146  -0.5082  -0.4977  -0.4667
 -0.4268  -0.3791  -0.3788  -0.3587  -0.2475

 Beta MOs
 -- Occupied --
-19.3735 -19.3702 -19.3283 -19.2798 -19.2789 -10.4381 -10.4377  -1.2330
 -1.1670  -1.1525  -1.1345  -1.0660  -0.8037  -0.7003  -0.6631  -0.6277
 -0.5832  -0.5608  -0.5281  -0.5168  -0.5095  -0.5009  -0.4852  -0.4429
 -0.4249  -0.3730  -0.3592  -0.3555

          Ground-State Mulliken Net Atomic Charges

     Atom                 Charge (a.u.)    Spin (a.u.)
  --------------------------------------------------------
      1 O                    -0.377717       0.076485
      2 C                    -0.032426       0.605450
      3 O                    -0.343235       0.090738
      4 C                     0.444388       0.045155
      5 O                    -0.712825       0.087691
      6 O                    -0.717191       0.088060
      7 H                     0.369043       0.000472
      8 H                     0.332133      -0.002634
      9 H                     0.378726       0.002627
     10 O                    -0.660340       0.007173
     11 H                     0.319443      -0.001216
  --------------------------------------------------------
  Sum of atomic charges =    -1.000000

                    Cartesian Multipole Moments
 -----------------------------------------------------------------
    Charge (ESU x 10^10)
                -4.8032
    Dipole Moment (Debye)
         X     -10.9126      Y       0.5322      Z       0.7598
       Tot      10.9519
    Quadrupole Moments (Debye-Ang)
        XX     -60.7887     XY      -2.7972     YY     -54.7829
        XZ      -1.8646     YZ      -4.7398     ZZ     -53.0159

             Standard Nuclear Orientation (Angstroms)
    I     Atom           X                Y                Z
 ----------------------------------------------------------------
    1      O      -0.5898693698     1.4364167686    -0.2011324283
    2      C      -0.0505459724     0.4558973035     0.6364534286
    3      O      -0.9992020981    -0.4709441896     1.0550590018
    4      C       1.1382211719    -0.2198854210    -0.0797845773
    5      O       2.1150602176     0.5155082449    -0.3422678855
    6      O       1.0091565412    -1.4439638257    -0.3063138284
    7      H      -1.2923185257     1.8935755434     0.2782478755
    8      H      -0.6832252495    -1.3229325128     0.7021992984
    9      H       0.3900654810     0.9778650496     1.5657085859
   10      O       1.5169367837     1.7843143470     2.2297602170
   11      H       2.0821964203     1.6320557921     1.4474164122
 ----------------------------------------------------------------

 Total job time:  13696.90s(wall), 106367.21s(cpu)
        *  Thank you very much for using Q-Chem.  Have a nice day.  *
