 Q-Chem 5.4, Q-Chem, Inc., Pleasanton, CA (2021)
 Q-Chem 5.4.1 for Intel X86 EM64T Linux

User input:
--------------------------------------------------------------
$molecule
-1 2
O   -0.8820247    1.0690563   -0.2833168
C   -0.0643048    0.4858447    0.6971505
O   -0.7508723   -0.5472826    1.3581975
C    1.1876969   -0.0532654    0.0533649
O    2.4070601    0.4068181    0.4067364
O    1.1033302   -0.9184384   -0.8040392
H   -1.5933885    1.5585038    0.2055143
H   -1.1573745   -1.1261802    0.6609745
H    0.3218659    1.4369544    1.5673464
O    1.5706511    1.7733809    1.7923166
H    2.4938360    1.1525155    1.3311010
$end

$rem
BASIS = 6-311++G(2df,2p)
GUI = 2
JOB_TYPE = Frequency
METHOD = wB97M-V
SCF_ALGORITHM = DIIS_GDM
MAX_SCF_CYCLES = 400
SCF_CONVERGENCE = 6
THRESH = 11
SYMMETRY_IGNORE = 1
solvent_method = SMD
$end

--------------------------------------------------------------

   21    -454.7944288316      3.41e-07  Convergence criterion met
 Total energy in the final basis set =     -454.7884405579
   19    -454.7944150036      7.92e-07  Convergence criterion met
 Total energy in the final basis set =     -454.7884230498
   19    -454.7944413667      7.66e-07  Convergence criterion met
 Total energy in the final basis set =     -454.7884566392
   19    -454.7944480462      7.73e-07  Convergence criterion met
 Total energy in the final basis set =     -454.7884626307
   19    -454.7944088212      7.92e-07  Convergence criterion met
 Total energy in the final basis set =     -454.7884176238
   19    -454.7944563142      7.87e-07  Convergence criterion met
 Total energy in the final basis set =     -454.7884634499
   19    -454.7944001684      7.70e-07  Convergence criterion met
 Total energy in the final basis set =     -454.7884162914
   19    -454.7943989459      7.61e-07  Convergence criterion met
 Frequency:     -2278.84               -1231.01                -188.01
 Force Cnst:      3.3569                 1.0154                 0.2847
 Red. Mass:       1.0971                 1.1373                13.6706
 IR Intens:     5736.737               3057.968                 15.123
 Frequency:       126.58                 275.16                 334.14
 Force Cnst:      0.0775                 0.3810                 0.5193
 Red. Mass:       8.2128                 8.5419                 7.8933
 IR Intens:        2.832                 16.162                 18.998
 Frequency:       352.89                 442.14                 571.78
 Force Cnst:      0.4604                 0.9117                 0.3329
 Red. Mass:       6.2749                 7.9156                 1.7281
 IR Intens:       19.789                105.667                 67.260
 Frequency:       604.67                 675.30                 704.76
 Force Cnst:      0.4220                 0.7871                 0.4786
 Red. Mass:       1.9589                 2.9293                 1.6353
 IR Intens:      239.126                 36.749                529.828
 Frequency:       804.36                 837.81                 918.34
 Force Cnst:      3.4594                 2.0868                 2.6773
 Red. Mass:       9.0751                 5.0460                 5.3881
 IR Intens:       92.213                265.947                 36.832
 Frequency:      1073.11                1114.44                1200.98
 Force Cnst:      0.7759                 4.4889                 1.1649
 Red. Mass:       1.1436                 6.1345                 1.3707
 IR Intens:      220.084                838.049                 93.272
 Frequency:      1264.12                1325.38                1363.13
 Force Cnst:      2.6482                 2.4305                 1.5339
 Red. Mass:       2.8127                 2.3483                 1.4011
 IR Intens:      142.975                136.070                427.497
 Frequency:      1408.39                1564.00                1618.08
 Force Cnst:      1.6629                 1.8560                 2.0366
 Red. Mass:       1.4229                 1.2879                 1.3202
 IR Intens:        3.701                552.805                574.555
 Frequency:      1727.07                3435.95                3463.71
 Force Cnst:      6.8038                 7.4081                 7.5344
 Red. Mass:       3.8715                 1.0650                 1.0659
 IR Intens:      223.366                109.437                209.225

 STANDARD THERMODYNAMIC QUANTITIES AT   298.15 K  AND     1.00 ATM

   This Molecule has  3 Imaginary Frequencies
   Zero point vibrational energy:       38.893 kcal/mol

   Atom    1 Element O  Has Mass   15.99491
   Atom    2 Element C  Has Mass   12.00000
   Atom    3 Element O  Has Mass   15.99491
   Atom    4 Element C  Has Mass   12.00000
   Atom    5 Element O  Has Mass   15.99491
   Atom    6 Element O  Has Mass   15.99491
   Atom    7 Element H  Has Mass    1.00783
   Atom    8 Element H  Has Mass    1.00783
   Atom    9 Element H  Has Mass    1.00783
   Atom   10 Element O  Has Mass   15.99491
   Atom   11 Element H  Has Mass    1.00783
   Molecular Mass:   108.005870 amu
   Principal axes and moments of inertia in amu*Bohr^2:
                             1           2           3
    Eigenvalues --      582.88026   735.37045   996.33095
          X               0.95195    -0.30128     0.05492
          Y               0.25626     0.68545    -0.68153
          Z               0.16769     0.66286     0.72972
   Rotational Symmetry Number is   1
   The Molecule is an Asymmetric Top
   Translational Enthalpy:        0.889 kcal/mol
   Rotational Enthalpy:           0.889 kcal/mol
   Vibrational Enthalpy:         40.791 kcal/mol
   gas constant (RT):             0.592 kcal/mol
   Translational Entropy:        39.947  cal/mol.K
   Rotational Entropy:           27.548  cal/mol.K
   Vibrational Entropy:          10.151  cal/mol.K

   Total Enthalpy:               43.160 kcal/mol
   Total Entropy:                77.646  cal/mol.K
 Total job time:  3858.94s(wall), 56895.15s(cpu)
        *  Thank you very much for using Q-Chem.  Have a nice day.  *
 Q-Chem 5.4, Q-Chem, Inc., Pleasanton, CA (2021)
 Q-Chem 5.4.1 for Intel X86 EM64T Linux

User input:
--------------------------------------------------------------

$rem
JOBTYPE = ts
SCF_GUESS = read
GEOM_OPT_HESSIAN = read
MAX_SCF_CYCLES = 350
GEOM_OPT_DMAX = 60
GEOM_OPT_MAX_CYCLES = 250
METHOD = wB97M-v
BASIS = 6-311++G(2df,2p)
SCF_CONVERGENCE = 7
THRESH = 12
SCF_ALGORITHM = DIIS_GDM
solvent_method = SMD
$end

$molecule
read
$end
--------------------------------------------------------------

   21    -454.8769995330      5.58e-08  Convergence criterion met
 Total energy in the final basis set =     -454.8704158804
   21    -454.8769850048      7.82e-08  Convergence criterion met
 Total energy in the final basis set =     -454.8704109416
   20    -454.8769895548      8.55e-08  Convergence criterion met
 Total energy in the final basis set =     -454.8704155015
   20    -454.8770022311      9.92e-08  Convergence criterion met
 Total energy in the final basis set =     -454.8704200725
   19    -454.8769983908      7.43e-08  Convergence criterion met
 Total energy in the final basis set =     -454.8704187660
   21    -454.8770002558      6.43e-08  Convergence criterion met
 Total energy in the final basis set =     -454.8704203396

             Standard Nuclear Orientation (Angstroms)
    I     Atom           X                Y                Z
 ----------------------------------------------------------------
    1      O      -0.5898693698     1.4364167686    -0.2011324283
    2      C      -0.0505459724     0.4558973035     0.6364534286
    3      O      -0.9992020981    -0.4709441896     1.0550590018
    4      C       1.1382211719    -0.2198854210    -0.0797845773
    5      O       2.1150602176     0.5155082449    -0.3422678855
    6      O       1.0091565412    -1.4439638257    -0.3063138284
    7      H      -1.2923185257     1.8935755434     0.2782478755
    8      H      -0.6832252495    -1.3229325128     0.7021992984
    9      H       0.3900654810     0.9778650496     1.5657085859
   10      O       1.5169367837     1.7843143470     2.2297602170
   11      H       2.0821964203     1.6320557921     1.4474164122
 ----------------------------------------------------------------

   21    -454.8770006876      4.82e-08  Convergence criterion met
 Total energy in the final basis set =     -454.8704203319
 Final energy is   -454.870420331888
 **  OPTIMIZATION CONVERGED  **

                    Orbital Energies (a.u.)
 --------------------------------------------------------------

 Alpha MOs
 -- Occupied --
-19.3680 -19.3544 -19.3483 -19.3011 -19.2973 -10.4562 -10.4514  -1.2185
 -1.1754  -1.1461  -1.1195  -1.0935  -0.8194  -0.6924  -0.6520  -0.6239
 -0.5956  -0.5703  -0.5420  -0.5258  -0.5208  -0.4992  -0.4894  -0.4434
 -0.4229  -0.3960  -0.3830  -0.3728  -0.3581

 Beta MOs
 -- Occupied --
-19.3534 -19.3477 -19.3471 -19.3009 -19.2972 -10.4520 -10.4513  -1.2158
 -1.1746  -1.1435  -1.0946  -1.0665  -0.8118  -0.6858  -0.6468  -0.6111
 -0.5896  -0.5513  -0.5395  -0.5214  -0.5173  -0.4912  -0.4264  -0.4158
 -0.4118  -0.3819  -0.3740  -0.3667

          Ground-State Mulliken Net Atomic Charges

     Atom                 Charge (a.u.)    Spin (a.u.)
  --------------------------------------------------------
      1 O                    -0.383000       0.031277
      2 C                    -0.166410       0.193136
      3 O                    -0.417549       0.031542
      4 C                     0.446876      -0.006079
      5 O                    -0.629919       0.004148
      6 O                    -0.639937       0.007121
      7 H                     0.349937      -0.000503
      8 H                     0.313659       0.004846
      9 H                     0.277648      -0.015081
     10 O                    -0.463115       0.760457
     11 H                     0.311810      -0.010864
  --------------------------------------------------------
  Sum of atomic charges =    -1.000000

                    Cartesian Multipole Moments
 -----------------------------------------------------------------
    Charge (ESU x 10^10)
                -4.8032
    Dipole Moment (Debye)
         X      -7.4677      Y       0.4572      Z      -0.0993
       Tot       7.4824
    Quadrupole Moments (Debye-Ang)
        XX     -56.9114     XY      -2.7662     YY     -50.8909
        XZ       1.1053     YZ      -4.0545     ZZ     -54.6399

 Total job time:  7405.89s(wall), 108739.57s(cpu)
        *  Thank you very much for using Q-Chem.  Have a nice day.  *
