 Q-Chem 5.4, Q-Chem, Inc., Pleasanton, CA (2021)
 Q-Chem 5.4.1 for Intel X86 EM64T Linux

User input:
--------------------------------------------------------------
$molecule
-1 2
C         0.6332016938    0.2492218888    0.7584201423
O         1.4025855345   -0.2466265649    1.5928966321
H        -1.9375709960   -1.0123331655   -0.8866207339
C        -0.5876356319   -0.6521105713    0.4044916578
O        -0.8569532521   -1.6133086963    1.1906387653
O        -1.1874161180   -0.4200235349   -0.6924266891
O         0.6788790895    1.3139223991    0.1285257991
O        -1.4798178908    1.1120009332    2.5219901422
O        -2.4778756125    0.8597842175    1.6870392901
H        -1.6207131163   -2.1609506057    0.9312915941
$end

$rem
BASIS = def2-TZVPPD
JOB_TYPE = SP
METHOD = wB97M-V
SCF_ALGORITHM = DIIS_GDM
MAX_SCF_CYCLES = 400
SCF_CONVERGENCE = 7
THRESH = 12
Solvent_method = SMD
$end
--------------------------------------------------------------

             Standard Nuclear Orientation (Angstroms)
    I     Atom           X                Y                Z
 ----------------------------------------------------------------
    1      C       0.6332016938     0.2492218888     0.7584201423
    2      O       1.4025855345    -0.2466265649     1.5928966321
    3      H      -1.9375709960    -1.0123331655    -0.8866207339
    4      C      -0.5876356319    -0.6521105713     0.4044916578
    5      O      -0.8569532521    -1.6133086963     1.1906387653
    6      O      -1.1874161180    -0.4200235349    -0.6924266891
    7      O       0.6788790895     1.3139223991     0.1285257991
    8      O      -1.4798178908     1.1120009332     2.5219901422
    9      O      -2.4778756125     0.8597842175     1.6870392901
   10      H      -1.6207131163    -2.1609506057     0.9312915941
 ----------------------------------------------------------------

   29    -528.8781365406      2.38e-08  Convergence criterion met
 Total energy in the final basis set =     -528.8699865385

                    Orbital Energies (a.u.)
 --------------------------------------------------------------

 Alpha MOs
 -- Occupied --
-19.4364 -19.4360 -19.3355 -19.3352 -19.3046 -19.3045 -10.5487 -10.4737
 -1.3232  -1.2420  -1.2140  -1.1936  -1.1094  -0.8668  -0.8624  -0.7731
 -0.7097  -0.6361  -0.6285  -0.5731  -0.5530  -0.5405  -0.5347  -0.5223
 -0.5184  -0.5033  -0.4893  -0.3918  -0.3882  -0.3828  -0.3227  -0.2914

 Beta MOs
 -- Occupied --
-19.4364 -19.4360 -19.3211 -19.3210 -19.3046 -19.3045 -10.5487 -10.4737
 -1.3232  -1.2421  -1.1939  -1.1845  -1.1094  -0.8668  -0.8201  -0.7731
 -0.7097  -0.6356  -0.6284  -0.5730  -0.5530  -0.5390  -0.5320  -0.5064
 -0.4977  -0.4749  -0.4353  -0.3915  -0.3880  -0.3827  -0.2723

          Ground-State Mulliken Net Atomic Charges

     Atom                 Charge (a.u.)    Spin (a.u.)
  --------------------------------------------------------
      1 C                     0.658943       0.005881
      2 O                    -0.779529      -0.000247
      3 H                     0.243872       0.000503
      4 C                     0.795209      -0.007008
      5 O                    -0.205969      -0.000220
      6 O                    -0.203546      -0.000100
      7 O                    -0.780657      -0.000237
      8 O                    -0.476336       0.503371
      9 O                    -0.489990       0.498186
     10 H                     0.238003      -0.000131
  --------------------------------------------------------
  Sum of atomic charges =    -1.000000

                    Cartesian Multipole Moments
 -----------------------------------------------------------------
    Charge (ESU x 10^10)
                -4.8032
    Dipole Moment (Debye)
         X      -2.3501      Y     -13.1130      Z     -13.1993
       Tot      18.7536
    Quadrupole Moments (Debye-Ang)
        XX     -61.1205     XY      18.6953     YY     -47.8501
        XZ      11.6910     YZ      -8.8777     ZZ     -74.4680

 Total job time:  538.11s(wall), 2141.42s(cpu)
        *  Thank you very much for using Q-Chem.  Have a nice day.  *
