 Q-Chem 5.4, Q-Chem, Inc., Pleasanton, CA (2021)
 Q-Chem 5.4.1 for Intel X86 EM64T Linux

User input:
--------------------------------------------------------------
$molecule
-2 1
C         1.0678097916    0.1362203142    0.2446529700
O         0.1854172623    0.9021318718    0.7054667393
C         2.4665796809    0.7642631813   -0.0482674149
O         2.4820646983    1.9480555495   -0.4675912507
O         3.4710254581    0.0386643221    0.1571710786
O         0.9295637088   -1.0874604390   -0.0028821221
$end

$rem
BASIS = 6-311++G(2df,2p)
GUI = 2
JOB_TYPE = Frequency
METHOD = wB97M-V
SOLVENT_METHOD = SMD
SCF_ALGORITHM = DIIS_GDM
MAX_SCF_CYCLES = 400
SCF_CONVERGENCE = 7
THRESH = 12
UNRESTRICTED = 1
SYMMETRY_IGNORE = 1
$end
--------------------------------------------------------------

   14    -377.4945649562      2.92e-08  Convergence criterion met
 Total energy in the final basis set =     -377.4859005379
   13    -377.4945583175      4.85e-08  Convergence criterion met
 Total energy in the final basis set =     -377.4858997259
   13    -377.4945695112      4.23e-08  Convergence criterion met
 Total energy in the final basis set =     -377.4858992889
   13    -377.4945611172      3.80e-08  Convergence criterion met
 Total energy in the final basis set =     -377.4858993418
   13    -377.4945661362      5.17e-08  Convergence criterion met
 Total energy in the final basis set =     -377.4858991341
   13    -377.4945656462      5.70e-08  Convergence criterion met
 Total energy in the final basis set =     -377.4859000183
   12    -377.4945632814      9.44e-08  Convergence criterion met
 Total energy in the final basis set =     -377.4859000844
   13    -377.4945672949      4.79e-08  Convergence criterion met
 Total energy in the final basis set =     -377.4859004710
   13    -377.4945655981      8.68e-08  Convergence criterion met
 Total energy in the final basis set =     -377.4859004413
   13    -377.4945651222      3.29e-08  Convergence criterion met
 Total energy in the final basis set =     -377.4859002655
   13    -377.4945644324      5.86e-08  Convergence criterion met
 Total energy in the final basis set =     -377.4859004557
   13    -377.4945681320      6.17e-08  Convergence criterion met
 Total energy in the final basis set =     -377.4858995535
   13    -377.4945597097      6.32e-08  Convergence criterion met
 Total energy in the final basis set =     -377.4858994954
   13    -377.4945657751      6.79e-08  Convergence criterion met
 Total energy in the final basis set =     -377.4859004736
   13    -377.4945639409      5.68e-08  Convergence criterion met
 Total energy in the final basis set =     -377.4859004106

                    Orbital Energies (a.u.)
 --------------------------------------------------------------

 Alpha MOs
 -- Occupied --
-19.2814 -19.2813 -19.2813 -19.2813 -10.4324 -10.4323  -1.1781  -1.1471
 -1.0822  -1.0642  -0.7225  -0.5886  -0.5682  -0.5433  -0.5421  -0.5110
 -0.4858  -0.4232  -0.3754  -0.3690  -0.3679  -0.3381  -0.3253

 Beta MOs
 -- Occupied --
-19.2814 -19.2813 -19.2813 -19.2813 -10.4324 -10.4323  -1.1781  -1.1471
 -1.0822  -1.0642  -0.7225  -0.5886  -0.5682  -0.5433  -0.5421  -0.5110
 -0.4858  -0.4232  -0.3754  -0.3690  -0.3679  -0.3381  -0.3253

          Ground-State Mulliken Net Atomic Charges

     Atom                 Charge (a.u.)    Spin (a.u.)
  --------------------------------------------------------
      1 C                     0.362346       0.000000
      2 O                    -0.680831       0.000000
      3 C                     0.361721       0.000000
      4 O                    -0.680980       0.000000
      5 O                    -0.680944       0.000000
      6 O                    -0.681313       0.000000
  --------------------------------------------------------
  Sum of atomic charges =    -2.000000

                    Cartesian Multipole Moments
 -----------------------------------------------------------------
    Charge (ESU x 10^10)
                -9.6064
    Dipole Moment (Debye)
         X     -16.9742      Y      -4.3219      Z      -0.9356
       Tot      17.5407
    Quadrupole Moments (Debye-Ang)
        XX     -90.3799     XY     -10.0322     YY     -58.2491
        XZ       2.6466     YZ       1.1260     ZZ     -38.5692

             Standard Nuclear Orientation (Angstroms)
    I     Atom           X                Y                Z
 ----------------------------------------------------------------
    1      C       1.0678097916     0.1362203142     0.2446529700
    2      O       0.1854172623     0.9021318718     0.7054667393
    3      C       2.4665796809     0.7642631813    -0.0482674149
    4      O       2.4820646983     1.9480555495    -0.4675912507
    5      O       3.4710254581     0.0386643221     0.1571710786
    6      O       0.9295637088    -1.0874604390    -0.0028821221
 ----------------------------------------------------------------

 Frequency:        26.30                 300.81                 383.13
 Force Cnst:      0.0065                 0.8366                 1.2443
 Red. Mass:      15.9919                15.6932                14.3871
 IR Intens:        0.001                  5.840                 40.833
 Frequency:       446.38                 681.26                 740.70
 Force Cnst:      1.8282                 3.6662                 4.6953
 Red. Mass:      15.5723                13.4071                14.5256
 IR Intens:        0.000                 64.131                179.716
 Frequency:       882.84                 887.48                1321.79
 Force Cnst:      5.6806                 6.8067                14.4310
 Red. Mass:      12.3703                14.6680                14.0190
 IR Intens:        7.337                  0.006                540.174
 Frequency:      1483.57                1532.57                1549.49
 Force Cnst:     17.0672                18.0322                18.1543
 Red. Mass:      13.1611                13.0304                12.8337
 IR Intens:        0.502               2797.166                305.518

 STANDARD THERMODYNAMIC QUANTITIES AT   298.15 K  AND     1.00 ATM

   This Molecule has  0 Imaginary Frequencies
   Zero point vibrational energy:       14.634 kcal/mol

   Atom    1 Element C  Has Mass   12.00000
   Atom    2 Element O  Has Mass   15.99491
   Atom    3 Element C  Has Mass   12.00000
   Atom    4 Element O  Has Mass   15.99491
   Atom    5 Element O  Has Mass   15.99491
   Atom    6 Element O  Has Mass   15.99491
   Molecular Mass:    87.979640 amu
   Principal axes and moments of inertia in amu*Bohr^2:
                             1           2           3
    Eigenvalues --      286.39781   494.80905   728.55614
          X               0.89611    -0.40604     0.17924
          Y               0.40226     0.91365     0.05862
          Z              -0.18756     0.01957     0.98206
   Rotational Symmetry Number is   1
   The Molecule is an Asymmetric Top
   Translational Enthalpy:        0.889 kcal/mol
   Rotational Enthalpy:           0.889 kcal/mol
   Vibrational Enthalpy:         16.048 kcal/mol
   gas constant (RT):             0.592 kcal/mol
   Translational Entropy:        39.336  cal/mol.K
   Rotational Entropy:           26.137  cal/mol.K
   Vibrational Entropy:          10.281  cal/mol.K

   Total Enthalpy:               18.418 kcal/mol
   Total Entropy:                75.754  cal/mol.K
 Total job time:  1293.65s(wall), 9739.97s(cpu)
        *  Thank you very much for using Q-Chem.  Have a nice day.  *
