 Q-Chem 5.4, Q-Chem, Inc., Pleasanton, CA (2021)
 Q-Chem 5.4.1 for Intel X86 EM64T Linux

User input:
--------------------------------------------------------------
$molecule
-2 1
C         1.0615172386    0.1333968314    0.2459744787
O         0.0933613264    0.9313668836    0.3754471133
C         2.4725555692    0.7671988508   -0.0495992536
O         2.5275161275    2.0244776580   -0.1365629516
O         3.4411338019   -0.0305378646   -0.1773944366
O         1.0063765363   -1.1240275592    0.3306850500
$end

$rem
BASIS = 6-311++G(2df,2p)
GUI = 2
JOB_TYPE = Optimization
METHOD = wB97M-V
SCF_ALGORITHM = DIIS_GDM
MAX_SCF_CYCLES = 400
GEOM_OPT_MAX_CYCLES = 150
SCF_CONVERGENCE = 7
THRESH = 12
UNRESTRICTED = 1
Solvent_method = SMD
$end
--------------------------------------------------------------

   13    -377.4941078535      2.80e-08  Convergence criterion met
 Total energy in the final basis set =     -377.4854812964
   13    -377.4944421217      1.30e-08  Convergence criterion met
 Total energy in the final basis set =     -377.4857060926
   14    -377.4899850528      3.31e-08  Convergence criterion met
 Total energy in the final basis set =     -377.4811465937
   14    -377.4943845303      4.34e-08  Convergence criterion met
 Total energy in the final basis set =     -377.4856384776
   14    -377.4909278561      3.52e-08  Convergence criterion met
 Total energy in the final basis set =     -377.4822016463
   14    -377.4944624410      3.15e-08  Convergence criterion met
 Total energy in the final basis set =     -377.4857158342
   13    -377.4944772953      7.88e-08  Convergence criterion met
 Total energy in the final basis set =     -377.4857286613
   13    -377.4944780023      3.67e-08  Convergence criterion met
   14    -377.4944284365      4.44e-08  Convergence criterion met
 Total energy in the final basis set =     -377.4856998894
   13    -377.4945712309      8.77e-08  Convergence criterion met
 Total energy in the final basis set =     -377.4858461546
   13    -377.4945828990      5.99e-08  Convergence criterion met
 Total energy in the final basis set =     -377.4858815693
   14    -377.4945632533      2.98e-08  Convergence criterion met
 Total energy in the final basis set =     -377.4858945030
   13    -377.4945603908      4.56e-08  Convergence criterion met
 Total energy in the final basis set =     -377.4858963050
   12    -377.4945665338      7.49e-08  Convergence criterion met
 Total energy in the final basis set =     -377.4859003507

             Standard Nuclear Orientation (Angstroms)
    I     Atom           X                Y                Z
 ----------------------------------------------------------------
    1      C       1.0678097916     0.1362203142     0.2446529700
    2      O       0.1854172623     0.9021318718     0.7054667393
    3      C       2.4665796809     0.7642631813    -0.0482674149
    4      O       2.4820646983     1.9480555495    -0.4675912507
    5      O       3.4710254581     0.0386643221     0.1571710786
    6      O       0.9295637088    -1.0874604390    -0.0028821221
 ----------------------------------------------------------------

   12    -377.4945649569      4.66e-08  Convergence criterion met
 Total energy in the final basis set =     -377.4859005386
 Final energy is   -377.485900538556
 **  OPTIMIZATION CONVERGED  **

                    Orbital Energies (a.u.)
 --------------------------------------------------------------

 Alpha MOs
 -- Occupied --
-19.2813 -19.2813 -19.2813 -19.2813 -10.4324 -10.4323  -1.1781  -1.1472
 -1.0823  -1.0642  -0.7225  -0.5886  -0.5682  -0.5433  -0.5421  -0.5110
 -0.4859  -0.4232  -0.3753  -0.3690  -0.3678  -0.3381  -0.3253

 Beta MOs
 -- Occupied --
-19.2813 -19.2813 -19.2813 -19.2813 -10.4324 -10.4323  -1.1781  -1.1472
 -1.0823  -1.0642  -0.7225  -0.5886  -0.5682  -0.5433  -0.5421  -0.5110
 -0.4859  -0.4232  -0.3753  -0.3690  -0.3678  -0.3381  -0.3253

          Ground-State Mulliken Net Atomic Charges

     Atom                 Charge (a.u.)    Spin (a.u.)
  --------------------------------------------------------
      1 C                     0.362371       0.000000
      2 O                    -0.680975       0.000000
      3 C                     0.361738       0.000000
      4 O                    -0.680990       0.000000
      5 O                    -0.680932       0.000000
      6 O                    -0.681212       0.000000
  --------------------------------------------------------
  Sum of atomic charges =    -2.000000

                    Cartesian Multipole Moments
 -----------------------------------------------------------------
    Charge (ESU x 10^10)
                -9.6064
    Dipole Moment (Debye)
         X     -16.9736      Y      -4.3233      Z      -0.9395
       Tot      17.5407
    Quadrupole Moments (Debye-Ang)
        XX     -90.3784     XY     -10.0327     YY     -58.2500
        XZ       2.6437     YZ       1.1299     ZZ     -38.5688

 Total job time:  609.18s(wall), 4686.80s(cpu)
        *  Thank you very much for using Q-Chem.  Have a nice day.  *
