 Q-Chem 5.4, Q-Chem, Inc., Pleasanton, CA (2021)
 Q-Chem 5.4.1 for Intel X86 EM64T Linux

User input:
--------------------------------------------------------------
$molecule
0 1
O        -0.6678554955    1.1020238419    0.2612852811
C        -0.3656352537   -0.2442880346    0.5330946241
O        -1.0087321239   -1.1308296264   -0.3381898993
C         1.1413976584   -0.4349469172    0.3500214906
O         1.8712152688    0.6730078684    0.4158507821
O         1.6501434675   -1.5191886229    0.2019956850
H        -1.3958858049    1.3819609322    0.8267715306
H        -1.8915177107   -1.3065397044    0.0066128236
H         1.2716528173    1.4364649447    0.4903475041
H        -0.6024757234   -0.4811881816    1.5723379780
$end

$rem
BASIS = 6-311++G(3df,2p)
JOB_TYPE = SP
METHOD = wB97M-V
SCF_ALGORITHM = DIIS_GDM
MAX_SCF_CYCLES = 400
SCF_CONVERGENCE = 7
THRESH = 12
Solvent_method = SMD
$end
--------------------------------------------------------------

             Standard Nuclear Orientation (Angstroms)
    I     Atom           X                Y                Z
 ----------------------------------------------------------------
    1      O      -0.6678554955     1.1020238419     0.2612852811
    2      C      -0.3656352537    -0.2442880346     0.5330946241
    3      O      -1.0087321239    -1.1308296264    -0.3381898993
    4      C       1.1413976584    -0.4349469172     0.3500214906
    5      O       1.8712152688     0.6730078684     0.4158507821
    6      O       1.6501434675    -1.5191886229     0.2019956850
    7      H      -1.3958858049     1.3819609322     0.8267715306
    8      H      -1.8915177107    -1.3065397044     0.0066128236
    9      H       1.2716528173     1.4364649447     0.4903475041
   10      H      -0.6024757234    -0.4811881816     1.5723379780
 ----------------------------------------------------------------

   14    -379.5836435399      9.75e-08  Convergence criterion met
 Total energy in the final basis set =     -379.5767205763

                    Orbital Energies (a.u.)
 --------------------------------------------------------------

 Alpha MOs
 -- Occupied --
-19.3887 -19.3601 -19.3552 -19.3383 -10.4934 -10.4664  -1.2577  -1.2079
 -1.1729  -1.1455  -0.8497  -0.7387  -0.6749  -0.6607  -0.6591  -0.5851
 -0.5639  -0.5294  -0.5173  -0.4923  -0.4455  -0.4321  -0.4273  -0.3993

          Ground-State Mulliken Net Atomic Charges

     Atom                 Charge (a.u.)
  ----------------------------------------
      1 O                    -0.692058
      2 C                     0.531512
      3 O                    -0.692828
      4 C                     0.921212
      5 O                    -0.596427
      6 O                    -0.761604
      7 H                     0.328844
      8 H                     0.322369
      9 H                     0.362227
     10 H                     0.276753
  ----------------------------------------
  Sum of atomic charges =     0.000000

                    Cartesian Multipole Moments
 -----------------------------------------------------------------
    Charge (ESU x 10^10)
                 0.0000
    Dipole Moment (Debye)
         X      -6.3026      Y       4.1534      Z       4.1502
       Tot       8.6138
    Quadrupole Moments (Debye-Ang)
        XX     -36.1813     XY       6.3774     YY     -38.2163
        XZ      -4.9464     YZ       1.0262     ZZ     -32.0901

 Total job time:  100.09s(wall), 394.12s(cpu)
        *  Thank you very much for using Q-Chem.  Have a nice day.  *
