 Q-Chem 5.4, Q-Chem, Inc., Pleasanton, CA (2021)
 Q-Chem 5.4.1 for Intel X86 EM64T Linux

User input:
--------------------------------------------------------------
$molecule
0 2
C         0.5259361465    0.2043921395    0.4740676009
O         1.2874533448   -0.5711169147    0.9869908096
H        -2.5875831013    0.7760436896   -0.2342908893
C        -0.9933530291   -0.0778802264    0.4538855820
O        -1.1924198531   -1.3245821325   -0.0584423260
O        -1.6382660789    0.9534424243   -0.1592693111
O         0.9252740252    1.3236119123   -0.1025326688
H         0.1686586019    1.8175050908   -0.4603742573
O        -1.4339563021   -0.1633635542    1.8680049276
O        -1.1076507085    0.9154251556    2.5200574009
H        -2.1404694451   -1.4927940843   -0.1674083686
$end

$rem
BASIS = def2-TZVP
JOB_TYPE = SP
METHOD = wB97M-V
SCF_ALGORITHM = DIIS_GDM
MAX_SCF_CYCLES = 400
SCF_CONVERGENCE = 7
THRESH = 12
Solvent_method = SMD
$end
--------------------------------------------------------------

             Standard Nuclear Orientation (Angstroms)
    I     Atom           X                Y                Z
 ----------------------------------------------------------------
    1      C       0.5259361465     0.2043921395     0.4740676009
    2      O       1.2874533448    -0.5711169147     0.9869908096
    3      H      -2.5875831013     0.7760436896    -0.2342908893
    4      C      -0.9933530291    -0.0778802264     0.4538855820
    5      O      -1.1924198531    -1.3245821325    -0.0584423260
    6      O      -1.6382660789     0.9534424243    -0.1592693111
    7      O       0.9252740252     1.3236119123    -0.1025326688
    8      H       0.1686586019     1.8175050908    -0.4603742573
    9      O      -1.4339563021    -0.1633635542     1.8680049276
   10      O      -1.1076507085     0.9154251556     2.5200574009
   11      H      -2.1404694451    -1.4927940843    -0.1674083686
 ----------------------------------------------------------------

   22    -529.3477085415      6.44e-08  Convergence criterion met
 Total energy in the final basis set =     -529.3409993348

                    Orbital Energies (a.u.)
 --------------------------------------------------------------

 Alpha MOs
 -- Occupied --
-19.4684 -19.4273 -19.3967 -19.3812 -19.3771 -19.3453 -10.5418 -10.5071
 -1.3603  -1.2697  -1.2407  -1.1890  -1.1703  -1.0077  -0.8574  -0.7523
 -0.7150  -0.7068  -0.6865  -0.6221  -0.6125  -0.5959  -0.5736  -0.5706
 -0.5295  -0.5047  -0.4928  -0.4514  -0.4474  -0.4250  -0.4102  -0.4016

 Beta MOs
 -- Occupied --
-19.4588 -19.4079 -19.3966 -19.3810 -19.3771 -19.3454 -10.5421 -10.5070
 -1.3374  -1.2672  -1.2386  -1.1889  -1.1701  -0.9731  -0.8523  -0.7517
 -0.7129  -0.6939  -0.6808  -0.5989  -0.5952  -0.5801  -0.5705  -0.5476
 -0.5270  -0.4944  -0.4856  -0.4494  -0.4463  -0.4184  -0.3889

          Ground-State Mulliken Net Atomic Charges

     Atom                 Charge (a.u.)    Spin (a.u.)
  --------------------------------------------------------
      1 C                     0.304854       0.006439
      2 O                    -0.391407      -0.001645
      3 H                     0.402509      -0.000633
      4 C                     0.367592      -0.006952
      5 O                    -0.450264      -0.000838
      6 O                    -0.473229       0.006007
      7 O                    -0.357473       0.000763
      8 H                     0.405269      -0.000174
      9 O                    -0.013101       0.288165
     10 O                    -0.195544       0.708879
     11 H                     0.400796      -0.000011
  --------------------------------------------------------
  Sum of atomic charges =     0.000000

                    Cartesian Multipole Moments
 -----------------------------------------------------------------
    Charge (ESU x 10^10)
                -0.0000
    Dipole Moment (Debye)
         X      -7.4310      Y       1.3927      Z      -4.5852
       Tot       8.8421
    Quadrupole Moments (Debye-Ang)
        XX     -33.9977     XY       3.2098     YY     -44.2776
        XZ       1.9863     YZ      -1.3085     ZZ     -53.3612

 Total job time:  199.86s(wall), 790.64s(cpu)
        *  Thank you very much for using Q-Chem.  Have a nice day.  *
