 Q-Chem 5.4, Q-Chem, Inc., Pleasanton, CA (2021)
 Q-Chem 5.4.1 for Intel X86 EM64T Linux

User input:
--------------------------------------------------------------
$molecule
-1 1
C         0.5976906250    0.1829920034    0.0003836046
O        -0.2116925879    1.0809780819    0.0002834213
C         2.1394850490    0.4145355110    0.0005056157
O         2.4827968949    1.6120878250    0.0005925006
O         2.8556453186   -0.6050976549    0.0004820653
O         0.2596265223   -1.1065494245    0.0003349708
H        -0.7087105219   -1.1729699418    0.0002458218
$end

$rem
BASIS = def2-QZVP
JOB_TYPE = SP
METHOD = wB97M-V
SCF_ALGORITHM = DIIS_GDM
MAX_SCF_CYCLES = 400
SCF_CONVERGENCE = 7
THRESH = 12
Solvent_method = SMD
$end
--------------------------------------------------------------

             Standard Nuclear Orientation (Angstroms)
    I     Atom           X                Y                Z
 ----------------------------------------------------------------
    1      C       0.5976906250     0.1829920034     0.0003836046
    2      O      -0.2116925879     1.0809780819     0.0002834213
    3      C       2.1394850490     0.4145355110     0.0005056157
    4      O       2.4827968949     1.6120878250     0.0005925006
    5      O       2.8556453186    -0.6050976549     0.0004820653
    6      O       0.2596265223    -1.1065494245     0.0003349708
    7      H      -0.7087105219    -1.1729699418     0.0002458218
 ----------------------------------------------------------------

   14    -377.9898402847      9.74e-08  Convergence criterion met
 Total energy in the final basis set =     -377.9808157384

                    Orbital Energies (a.u.)
 --------------------------------------------------------------

 Alpha MOs
 -- Occupied --
-19.3802 -19.3316 -19.2912 -19.2909 -10.4828 -10.4536  -1.2475  -1.1770
 -1.1565  -1.0904  -0.7950  -0.6708  -0.6155  -0.5918  -0.5818  -0.5398
 -0.5234  -0.5122  -0.4383  -0.4335  -0.3781  -0.3716  -0.3568

          Ground-State Mulliken Net Atomic Charges

     Atom                 Charge (a.u.)
  ----------------------------------------
      1 C                     0.295346
      2 O                    -0.421673
      3 C                     0.308042
      4 O                    -0.575634
      5 O                    -0.572777
      6 O                    -0.365269
      7 H                     0.331965
  ----------------------------------------
  Sum of atomic charges =    -1.000000

                    Cartesian Multipole Moments
 -----------------------------------------------------------------
    Charge (ESU x 10^10)
                -4.8032
    Dipole Moment (Debye)
         X     -13.1651      Y      -4.7696      Z      -0.0025
       Tot      14.0025
    Quadrupole Moments (Debye-Ang)
        XX     -71.4508     XY      -1.9993     YY     -48.9729
        XZ      -0.0071     YZ      -0.0022     ZZ     -33.6915

 Total job time:  472.28s(wall), 1876.07s(cpu)
        *  Thank you very much for using Q-Chem.  Have a nice day.  *
