 Q-Chem 5.4, Q-Chem, Inc., Pleasanton, CA (2021)
 Q-Chem 5.4.1 for Intel X86 EM64T Linux

User input:
--------------------------------------------------------------
$molecule
-1 2
C    1.9835847   -0.3719881   -1.7822707
C    0.5400026   -0.7497494   -2.0868995
O   -0.2678764    0.3907778   -2.2312629
O    0.0615611   -1.6510673   -1.1214145
O    2.4997389    0.6401062   -2.1999640
H   -0.1035043    0.9666016   -1.4716513
H    0.3220977   -1.2756204   -0.2624921
H    2.5568833   -1.1264341   -1.2247970
H    0.5202242   -1.2717165   -3.0445695
O    1.0558445    0.3530660    0.4790502
O    2.2178971    0.5505065    1.0717588
$end

$rem
BASIS = 6-311++G(2df,2p)
GUI = 2
JOB_TYPE = Frequency
METHOD = wB97M-V
SOLVENT_METHOD = SMD
SCF_ALGORITHM = DIIS_GDM
MAX_SCF_CYCLES = 400
SCF_CONVERGENCE = 7
THRESH = 12
SYMMETRY_IGNORE = 1
$end

--------------------------------------------------------------

   27    -454.7896800054      9.00e-08  Convergence criterion met
 Total energy in the final basis set =     -454.7852682346
   26    -454.7896821087      8.42e-08  Convergence criterion met
 Total energy in the final basis set =     -454.7852672539
   27    -454.7896758781      9.29e-09  Convergence criterion met
 Total energy in the final basis set =     -454.7852671940
   27    -454.7896810592      6.32e-08  Convergence criterion met
 Total energy in the final basis set =     -454.7852668149
   26    -454.7896760893      5.36e-08  Convergence criterion met
 Total energy in the final basis set =     -454.7852668076
   26    -454.7896775046      9.87e-08  Convergence criterion met
 Total energy in the final basis set =     -454.7852675882
   27    -454.7896812829      1.25e-08  Convergence criterion met
 Total energy in the final basis set =     -454.7852676619
   26    -454.7896725931      1.00e-07  Convergence criterion met
 Frequency:       -82.74                  59.59                  75.48
 Force Cnst:      0.0265                 0.0133                 0.0384
 Red. Mass:       6.5592                 6.3667                11.4357
 IR Intens:       61.031                 30.972                 13.196
 Frequency:       133.65                 175.12                 191.93
 Force Cnst:      0.1479                 0.0753                 0.2079
 Red. Mass:      14.0523                 4.1650                 9.5780
 IR Intens:        2.608                 28.955                 58.735
 Frequency:       275.93                 375.15                 444.66
 Force Cnst:      0.2147                 0.0984                 0.3744
 Red. Mass:       4.7859                 1.1872                 3.2139
 IR Intens:       19.071                159.634                 11.169
 Frequency:       553.08                 578.31                 641.58
 Force Cnst:      0.4559                 0.2582                 1.1541
 Red. Mass:       2.5297                 1.3102                 4.7585
 IR Intens:       18.375                255.872                 45.136
 Frequency:       877.44                1035.25                1185.60
 Force Cnst:      1.2510                 1.1681                 1.4248
 Red. Mass:       2.7579                 1.8499                 1.7204
 IR Intens:       32.661                 42.148                122.139
 Frequency:      1201.08                1281.13                1305.31
 Force Cnst:      1.0021                14.8808                 2.7407
 Red. Mass:       1.1790                15.3882                 2.7301
 IR Intens:      313.304                  4.926                129.944
 Frequency:      1335.55                1390.71                1436.68
 Force Cnst:      2.3621                 1.3690                 1.8744
 Red. Mass:       2.2477                 1.2013                 1.5413
 IR Intens:       20.226                 16.307                208.726
 Frequency:      1452.73                1768.45                3015.76
 Force Cnst:      1.8318                19.0694                 5.8286
 Red. Mass:       1.4732                10.3491                 1.0877
 IR Intens:      128.863                363.385                 90.443
 Frequency:      3098.69                3618.22                3769.83
 Force Cnst:      6.1372                 8.2174                 8.9268
 Red. Mass:       1.0848                 1.0654                 1.0661
 IR Intens:       27.878                428.507                160.617

 STANDARD THERMODYNAMIC QUANTITIES AT   298.15 K  AND     1.00 ATM

   This Molecule has  1 Imaginary Frequencies
   Zero point vibrational energy:       44.713 kcal/mol

   Atom    1 Element C  Has Mass   12.00000
   Atom    2 Element C  Has Mass   12.00000
   Atom    3 Element O  Has Mass   15.99491
   Atom    4 Element O  Has Mass   15.99491
   Atom    5 Element O  Has Mass   15.99491
   Atom    6 Element H  Has Mass    1.00783
   Atom    7 Element H  Has Mass    1.00783
   Atom    8 Element H  Has Mass    1.00783
   Atom    9 Element H  Has Mass    1.00783
   Atom   10 Element O  Has Mass   15.99491
   Atom   11 Element O  Has Mass   15.99491
   Molecular Mass:   108.005870 amu
   Principal axes and moments of inertia in amu*Bohr^2:
                             1           2           3
    Eigenvalues --      561.46213   905.45834  1141.41001
          X               0.48265     0.70315    -0.52213
          Y               0.29686     0.42953     0.85287
          Z               0.82396    -0.56664    -0.00143
   Rotational Symmetry Number is   1
   The Molecule is an Asymmetric Top
   Translational Enthalpy:        0.889 kcal/mol
   Rotational Enthalpy:           0.889 kcal/mol
   Vibrational Enthalpy:         47.961 kcal/mol
   gas constant (RT):             0.592 kcal/mol
   Translational Entropy:        39.947  cal/mol.K
   Rotational Entropy:           27.853  cal/mol.K
   Vibrational Entropy:          21.247  cal/mol.K

   Total Enthalpy:               50.331 kcal/mol
   Total Entropy:                89.047  cal/mol.K
 Total job time:  11037.02s(wall), 105291.06s(cpu)
        *  Thank you very much for using Q-Chem.  Have a nice day.  *
 Q-Chem 5.4, Q-Chem, Inc., Pleasanton, CA (2021)
 Q-Chem 5.4.1 for Intel X86 EM64T Linux

User input:
--------------------------------------------------------------

$molecule
read
$end

$rem
JOBTYPE            rpath
SCF_GUESS          read
RPATH_MAX_CYCLES   30
BASIS = 6-311++G(2df,2p)
METHOD = wB97M-V
SOLVENT_METHOD = SMD
SCF_ALGORITHM = DIIS_GDM
SCF_CONVERGENCE = 7
THRESH = 12
$end
--------------------------------------------------------------

 Total energy in the final basis set =     -454.7852682346
   26    -454.7897124388      4.21e-08  Convergence criterion met
 Total energy in the final basis set =     -454.7852943283
   25    -454.7871553308      9.03e-08  Convergence criterion met
 Total energy in the final basis set =     -454.7826395467
   26    -454.7897135866      3.92e-08  Convergence criterion met
 Total energy in the final basis set =     -454.7852946400
   24    -454.7855128631      8.37e-08  Convergence criterion met
 Total energy in the final basis set =     -454.7809312770
   26    -454.7897148463      2.58e-08  Convergence criterion met
 Total energy in the final basis set =     -454.7852949684
   25    -454.7897141708      9.56e-08  Convergence criterion met
 Total energy in the final basis set =     -454.7852949565
   25    -454.7897145954      9.73e-08  Convergence criterion met
 Total energy in the final basis set =     -454.7852950367

                    Orbital Energies (a.u.)
 --------------------------------------------------------------

 Alpha MOs
 -- Occupied --
-19.3493 -19.3477 -19.3461 -19.3431 -19.3393 -10.4461 -10.4381  -1.2302
 -1.2077  -1.1821  -1.1338  -0.8761  -0.8322  -0.7270  -0.6435  -0.6257
 -0.5955  -0.5777  -0.5407  -0.5332  -0.5145  -0.4957  -0.4920  -0.4694
 -0.4406  -0.4105  -0.3660  -0.3330  -0.3020

 Beta MOs
 -- Occupied --
-19.3460 -19.3431 -19.3393 -19.3358 -19.3326 -10.4461 -10.4381  -1.2105
 -1.1983  -1.1821  -1.1336  -0.8348  -0.8318  -0.7264  -0.6429  -0.6254
 -0.5946  -0.5772  -0.5168  -0.5122  -0.4977  -0.4854  -0.4670  -0.4455
 -0.4390  -0.4104  -0.3658  -0.2827

          Ground-State Mulliken Net Atomic Charges

     Atom                 Charge (a.u.)    Spin (a.u.)
  --------------------------------------------------------
      1 C                     0.082543      -0.003267
      2 C                    -0.093561       0.002275
      3 O                    -0.429655      -0.000489
      4 O                    -0.413563       0.000700
      5 O                    -0.392862      -0.001319
      6 H                     0.340262       0.003801
      7 H                     0.315789       0.002138
      8 H                     0.238153      -0.000803
      9 H                     0.209396       0.000878
     10 O                    -0.403308       0.461494
     11 O                    -0.453194       0.534591
  --------------------------------------------------------
  Sum of atomic charges =    -1.000000

                    Cartesian Multipole Moments
 -----------------------------------------------------------------
    Charge (ESU x 10^10)
                -4.8032
    Dipole Moment (Debye)
         X      -6.7368      Y      -3.0885      Z       0.4309
       Tot       7.4235
    Quadrupole Moments (Debye-Ang)
        XX     -63.4643     XY     -11.1077     YY     -47.3547
        XZ      -3.9828     YZ       3.2930     ZZ     -55.4485

             Standard Nuclear Orientation (Angstroms)
    I     Atom           X                Y                Z
 ----------------------------------------------------------------
    1      C       1.9835847000    -0.3719881000    -1.7822707000
    2      C       0.5400026000    -0.7497494000    -2.0868995000
    3      O      -0.2678764000     0.3907778000    -2.2312629000
    4      O       0.0615611000    -1.6510673000    -1.1214145000
    5      O       2.4997389000     0.6401062000    -2.1999640000
    6      H      -0.1035043000     0.9666016000    -1.4716513000
    7      H       0.3220977000    -1.2756204000    -0.2624921000
    8      H       2.5568833000    -1.1264341000    -1.2247970000
    9      H       0.5202242000    -1.2717165000    -3.0445695000
   10      O       1.0558445000     0.3530660000     0.4790502000
   11      O       2.2178971000     0.5505065000     1.0717588000
 ----------------------------------------------------------------

 Total job time:  2596.26s(wall), 24821.48s(cpu)
        *  Thank you very much for using Q-Chem.  Have a nice day.  *
