 Q-Chem 5.4, Q-Chem, Inc., Pleasanton, CA (2021)
 Q-Chem 5.4.1 for Intel X86 EM64T Linux

User input:
--------------------------------------------------------------
$molecule
-1 2
C    2.0106176   -0.3471794   -1.8921415
C    0.5543104   -0.7716087   -2.0637551
O   -0.2662397    0.3560460   -2.2718073
O    0.1558191   -1.5680935   -0.9794623
O    2.4568919    0.6811260   -2.3616470
H   -0.1005869    0.9555594   -1.5193255
H    0.4073335   -0.9920208   -0.2058774
H    2.6492666   -1.0722381   -1.3556736
H    0.4786535   -1.3843432   -2.9695400
O    1.0821113    0.4839904    0.4068300
O    1.9582760    0.1132443    1.3378872
$end

$rem
BASIS = 6-311++G(2df,2p)
GUI = 2
JOB_TYPE = Frequency
METHOD = wB97M-V
SCF_ALGORITHM = DIIS_GDM
MAX_SCF_CYCLES = 400
SCF_CONVERGENCE = 6
THRESH = 11
solvent_method = SMD
$end

--------------------------------------------------------------

   23    -454.7891375974      5.16e-07  Convergence criterion met
 Total energy in the final basis set =     -454.7847468577
   20    -454.7891472307      7.87e-07  Convergence criterion met
 Total energy in the final basis set =     -454.7847533948
   20    -454.7891259800      8.31e-07  Convergence criterion met
 Total energy in the final basis set =     -454.7847383380
   20    -454.7891470670      7.61e-07  Convergence criterion met
 Total energy in the final basis set =     -454.7847535491
   20    -454.7891253545      7.24e-07  Convergence criterion met
 Total energy in the final basis set =     -454.7847374103
   21    -454.7891279759      3.94e-07  Convergence criterion met
 Total energy in the final basis set =     -454.7847392640
   20    -454.7891459441      9.50e-07  Convergence criterion met
 Total energy in the final basis set =     -454.7847531816
   13    -454.7891309556      9.02e-07  Convergence criterion met
 Frequency:        71.33                  83.35                 111.49
 Force Cnst:      0.0241                 0.0304                 0.0975
 Red. Mass:       8.0289                 7.4276                13.3069
 IR Intens:       27.702                  5.566                  6.241
 Frequency:       128.87                 192.77                 249.10
 Force Cnst:      0.1199                 0.0770                 0.3681
 Red. Mass:      12.2502                 3.5153                10.0697
 IR Intens:        9.298                 43.281                 70.000
 Frequency:       296.07                 438.18                 515.36
 Force Cnst:      0.3212                 0.3568                 0.2220
 Red. Mass:       6.2198                 3.1539                 1.4185
 IR Intens:       19.033                 14.857                108.085
 Frequency:       569.37                 657.08                 843.19
 Force Cnst:      0.4911                 1.0702                 0.4951
 Red. Mass:       2.5713                 4.2073                 1.1818
 IR Intens:       96.036                 42.405                244.433
 Frequency:       885.10                1055.03                1193.16
 Force Cnst:      1.1212                 1.2381                 1.7061
 Red. Mass:       2.4290                 1.8879                 2.0340
 IR Intens:        6.237                 23.044                128.697
 Frequency:      1243.19                1256.30                1321.42
 Force Cnst:      9.7717                 1.3020                 2.0784
 Red. Mass:      10.7311                 1.4001                 2.0202
 IR Intens:       25.154                327.109                 41.485
 Frequency:      1353.67                1398.86                1448.64
 Force Cnst:      2.0786                 1.5429                 1.8505
 Red. Mass:       1.9253                 1.3383                 1.4966
 IR Intens:       12.506                 30.366                215.027
 Frequency:      1505.24                1742.98                2968.29
 Force Cnst:      1.6910                17.8538                 5.6478
 Red. Mass:       1.2667                 9.9747                 1.0880
 IR Intens:      183.091                341.805                 84.753
 Frequency:      3049.96                3200.39                3654.77
 Force Cnst:      5.9432                 6.4411                 8.3885
 Red. Mass:       1.0844                 1.0673                 1.0659
 IR Intens:       56.870               1041.900                139.387

 STANDARD THERMODYNAMIC QUANTITIES AT   298.15 K  AND     1.00 ATM

   This Molecule has  0 Imaginary Frequencies
   Zero point vibrational energy:       44.936 kcal/mol

   Atom    1 Element C  Has Mass   12.00000
   Atom    2 Element C  Has Mass   12.00000
   Atom    3 Element O  Has Mass   15.99491
   Atom    4 Element O  Has Mass   15.99491
   Atom    5 Element O  Has Mass   15.99491
   Atom    6 Element H  Has Mass    1.00783
   Atom    7 Element H  Has Mass    1.00783
   Atom    8 Element H  Has Mass    1.00783
   Atom    9 Element H  Has Mass    1.00783
   Atom   10 Element O  Has Mass   15.99491
   Atom   11 Element O  Has Mass   15.99491
   Molecular Mass:   108.005870 amu
   Principal axes and moments of inertia in amu*Bohr^2:
                             1           2           3
    Eigenvalues --      567.91125   916.84763  1158.17228
          X               0.27813     0.81679    -0.50547
          Y               0.10621     0.49686     0.86131
          Z               0.95465    -0.29324     0.05144
   Rotational Symmetry Number is   1
   The Molecule is an Asymmetric Top
   Translational Enthalpy:        0.889 kcal/mol
   Rotational Enthalpy:           0.889 kcal/mol
   Vibrational Enthalpy:         48.368 kcal/mol
   gas constant (RT):             0.592 kcal/mol
   Translational Entropy:        39.947  cal/mol.K
   Rotational Entropy:           27.891  cal/mol.K
   Vibrational Entropy:          22.432  cal/mol.K

   Total Enthalpy:               50.738 kcal/mol
   Total Entropy:                90.270  cal/mol.K
 Total job time:  4127.95s(wall), 60042.48s(cpu)
        *  Thank you very much for using Q-Chem.  Have a nice day.  *
 Q-Chem 5.4, Q-Chem, Inc., Pleasanton, CA (2021)
 Q-Chem 5.4.1 for Intel X86 EM64T Linux

User input:
--------------------------------------------------------------

$rem
JOBTYPE = ts
SCF_GUESS = read
GEOM_OPT_HESSIAN = read
MAX_SCF_CYCLES = 350
GEOM_OPT_DMAX = 60
GEOM_OPT_MAX_CYCLES = 250
METHOD = wB97M-v
BASIS = 6-311++G(2df,2p)
SCF_CONVERGENCE = 7
THRESH = 12
SCF_ALGORITHM = DIIS_GDM
solvent_method = SMD
$end

$molecule
read
$end
--------------------------------------------------------------

   25    -454.7896579935      9.46e-08  Convergence criterion met
 Total energy in the final basis set =     -454.7852526566
   27    -454.7896564028      1.93e-08  Convergence criterion met
 Total energy in the final basis set =     -454.7852562603
   27    -454.7896635672      1.95e-08  Convergence criterion met
 Total energy in the final basis set =     -454.7852600353
   27    -454.7896694747      1.18e-08  Convergence criterion met
 Total energy in the final basis set =     -454.7852636315
   25    -454.7896746308      7.87e-08  Convergence criterion met
 Total energy in the final basis set =     -454.7852664627
   26    -454.7896801288      4.73e-08  Convergence criterion met
 Total energy in the final basis set =     -454.7852680546

             Standard Nuclear Orientation (Angstroms)
    I     Atom           X                Y                Z
 ----------------------------------------------------------------
    1      C       1.9835846518    -0.3719880506    -1.7822707147
    2      C       0.5400026133    -0.7497493586    -2.0868994968
    3      O      -0.2678763913     0.3907778362    -2.2312629277
    4      O       0.0615610668    -1.6510672894    -1.1214145366
    5      O       2.4997388883     0.6401062072    -2.1999639977
    6      H      -0.1035042979     0.9666015823    -1.4716512933
    7      H       0.3220976539    -1.2756203631    -0.2624921003
    8      H       2.5568833091    -1.1264341286    -1.2247969553
    9      H       0.5202242391    -1.2717165149    -3.0445694873
   10      O       1.0558444933     0.3530659949     0.4790501776
   11      O       2.2178970737     0.5505064844     1.0717588321
 ----------------------------------------------------------------

   27    -454.7896800053      1.81e-08  Convergence criterion met
 Total energy in the final basis set =     -454.7852682346
 Final energy is   -454.785268234597
 **  OPTIMIZATION CONVERGED  **

                    Orbital Energies (a.u.)
 --------------------------------------------------------------

 Alpha MOs
 -- Occupied --
-19.3498 -19.3483 -19.3459 -19.3411 -19.3403 -10.4458 -10.4374  -1.2312
 -1.2072  -1.1809  -1.1342  -0.8764  -0.8319  -0.7269  -0.6437  -0.6252
 -0.5957  -0.5767  -0.5407  -0.5336  -0.5166  -0.4952  -0.4902  -0.4690
 -0.4404  -0.4108  -0.3652  -0.3333  -0.3021

 Beta MOs
 -- Occupied --
-19.3458 -19.3411 -19.3403 -19.3363 -19.3331 -10.4458 -10.4374  -1.2104
 -1.1989  -1.1810  -1.1340  -0.8349  -0.8318  -0.7263  -0.6430  -0.6248
 -0.5949  -0.5760  -0.5171  -0.5133  -0.4972  -0.4837  -0.4666  -0.4461
 -0.4391  -0.4107  -0.3651  -0.2827

          Ground-State Mulliken Net Atomic Charges

     Atom                 Charge (a.u.)    Spin (a.u.)
  --------------------------------------------------------
      1 C                     0.080404      -0.004361
      2 C                    -0.090556       0.002103
      3 O                    -0.430320      -0.000423
      4 O                    -0.413792       0.000986
      5 O                    -0.401873      -0.002232
      6 H                     0.340276       0.003946
      7 H                     0.318729       0.004053
      8 H                     0.238883      -0.000569
      9 H                     0.209834       0.000608
     10 O                    -0.401705       0.460112
     11 O                    -0.449880       0.535776
  --------------------------------------------------------
  Sum of atomic charges =    -1.000000

                    Cartesian Multipole Moments
 -----------------------------------------------------------------
    Charge (ESU x 10^10)
                -4.8032
    Dipole Moment (Debye)
         X      -6.8587      Y      -3.1843      Z       0.6698
       Tot       7.5914
    Quadrupole Moments (Debye-Ang)
        XX     -63.9831     XY     -11.3494     YY     -47.2638
        XZ      -3.5023     YZ       3.1731     ZZ     -55.6583

 Total job time:  3815.79s(wall), 55453.76s(cpu)
        *  Thank you very much for using Q-Chem.  Have a nice day.  *
