 Q-Chem 5.4, Q-Chem, Inc., Pleasanton, CA (2021)
 Q-Chem 5.4.1 for Intel X86 EM64T Linux

User input:
--------------------------------------------------------------
$molecule
-1 2
C         0.2893629763    0.0315406487    0.5566337965
O         0.6541680611   -1.1565349345    0.4174602413
C        -1.2484564108    0.2451230646    0.4406601187
O        -1.9097781564   -0.9131982675    0.1604466214
O        -1.5417753257    1.2702625386   -0.4185445904
O         0.9759381516    1.0444137214    0.7745928551
O        -1.7384232270    0.7473130169    1.7662032033
O        -1.5108119417   -0.1144755690    2.7119986494
H        -1.2217318192   -1.6053856353    0.1817768981
H        -2.4856635083    1.2394733162   -0.6302879932
$end

$rem
BASIS = def2-TZVP
JOB_TYPE = SP
METHOD = wB97M-V
SCF_ALGORITHM = DIIS_GDM
MAX_SCF_CYCLES = 400
SCF_CONVERGENCE = 7
THRESH = 12
Solvent_method = SMD
$end
--------------------------------------------------------------

             Standard Nuclear Orientation (Angstroms)
    I     Atom           X                Y                Z
 ----------------------------------------------------------------
    1      C       0.2893629763     0.0315406487     0.5566337965
    2      O       0.6541680611    -1.1565349345     0.4174602413
    3      C      -1.2484564108     0.2451230646     0.4406601187
    4      O      -1.9097781564    -0.9131982675     0.1604466214
    5      O      -1.5417753257     1.2702625386    -0.4185445904
    6      O       0.9759381516     1.0444137214     0.7745928551
    7      O      -1.7384232270     0.7473130169     1.7662032033
    8      O      -1.5108119417    -0.1144755690     2.7119986494
    9      H      -1.2217318192    -1.6053856353     0.1817768981
   10      H      -2.4856635083     1.2394733162    -0.6302879932
 ----------------------------------------------------------------

   21    -528.9087056203      6.47e-08  Convergence criterion met
 Total energy in the final basis set =     -528.9023877347

                    Orbital Energies (a.u.)
 --------------------------------------------------------------

 Alpha MOs
 -- Occupied --
-19.4531 -19.4121 -19.3613 -19.3551 -19.2976 -19.2919 -10.5076 -10.4522
 -1.3436  -1.2327  -1.1780  -1.1608  -1.0936  -0.9893  -0.8061  -0.7142
 -0.6722  -0.6627  -0.6089  -0.6040  -0.5848  -0.5429  -0.5249  -0.5223
 -0.5065  -0.4734  -0.4324  -0.4113  -0.3966  -0.3806  -0.3711  -0.3627

 Beta MOs
 -- Occupied --
-19.4429 -19.3933 -19.3614 -19.3550 -19.2974 -19.2919 -10.5080 -10.4521
 -1.3194  -1.2292  -1.1778  -1.1606  -1.0934  -0.9544  -0.7997  -0.7082
 -0.6688  -0.6523  -0.5996  -0.5753  -0.5481  -0.5385  -0.5227  -0.5154
 -0.5012  -0.4673  -0.4294  -0.3913  -0.3805  -0.3710  -0.3613

          Ground-State Mulliken Net Atomic Charges

     Atom                 Charge (a.u.)    Spin (a.u.)
  --------------------------------------------------------
      1 C                     0.308105       0.008457
      2 O                    -0.582913       0.002912
      3 C                     0.278884      -0.009489
      4 O                    -0.465064       0.003163
      5 O                    -0.473636      -0.001243
      6 O                    -0.585487      -0.000672
      7 O                    -0.016880       0.311778
      8 O                    -0.231081       0.685225
      9 H                     0.378386      -0.000300
     10 H                     0.389684       0.000170
  --------------------------------------------------------
  Sum of atomic charges =    -1.000000

                    Cartesian Multipole Moments
 -----------------------------------------------------------------
    Charge (ESU x 10^10)
                -4.8032
    Dipole Moment (Debye)
         X      -3.5567      Y      -0.9695      Z      -5.7632
       Tot       6.8414
    Quadrupole Moments (Debye-Ang)
        XX     -50.7103     XY      -3.0227     YY     -53.6470
        XZ       3.9294     YZ      -1.8302     ZZ     -57.0124

 Total job time:  207.10s(wall), 821.72s(cpu)
        *  Thank you very much for using Q-Chem.  Have a nice day.  *
