 Q-Chem 5.4, Q-Chem, Inc., Pleasanton, CA (2021)
 Q-Chem 5.4.1 for Intel X86 EM64T Linux

User input:
--------------------------------------------------------------
$molecule
0 2
C        -0.8879616665   -0.7378520920    0.2174537040
O        -0.5303919011   -1.6361589609    0.9859185005
O        -1.4876823690   -0.5156365480   -0.7747935549
O        -0.2632173821    0.6311554173    0.8894757567
O         0.3479937295    0.2423807884    1.9518529618
H         0.0852773892   -0.9147752047    1.8000274319
$end

$rem
BASIS = 6-311++G(2df,2p)
GUI = 2
JOB_TYPE = Frequency
METHOD = wB97M-V
SOLVENT_METHOD = SMD
SCF_ALGORITHM = DIIS_GDM
MAX_SCF_CYCLES = 400
SCF_CONVERGENCE = 7
THRESH = 12
$end

--------------------------------------------------------------

   18    -339.5095138615      8.46e-08  Convergence criterion met
 Total energy in the final basis set =     -339.5033849104
   18    -339.5095121607      8.98e-08  Convergence criterion met
 Total energy in the final basis set =     -339.5033842676
   19    -339.5095140915      3.54e-08  Convergence criterion met
 Total energy in the final basis set =     -339.5033840914
   18    -339.5095103898      8.58e-08  Convergence criterion met
 Total energy in the final basis set =     -339.5033842978
   17    -339.5095160256      7.68e-08  Convergence criterion met
 Total energy in the final basis set =     -339.5033842323
   18    -339.5095110457      9.02e-08  Convergence criterion met
 Total energy in the final basis set =     -339.5033831201
   19    -339.5095134827      3.64e-08  Convergence criterion met
 Total energy in the final basis set =     -339.5033835324
   18    -339.5095130961      9.79e-08  Convergence criterion met
 Frequency:     -1164.66                 221.89                 381.01
 Force Cnst:      0.9769                 0.4105                 1.0375
 Red. Mass:       1.2224                14.1519                12.1300
 IR Intens:      905.989                  0.296                197.486
 Frequency:       662.21                 732.38                 734.08
 Force Cnst:      1.8320                 4.3707                 4.0129
 Red. Mass:       7.0906                13.8302                12.6390
 IR Intens:      775.694                  3.993                 55.322
 Frequency:       784.30                1151.07                1290.22
 Force Cnst:      5.0539                 0.8283                 9.1761
 Red. Mass:      13.9446                 1.0610                 9.3559
 IR Intens:      265.098                157.055                514.836
 Frequency:      1340.15                1936.78                2046.48
 Force Cnst:     16.6677                 3.7539                 5.1917
 Red. Mass:      15.7513                 1.6985                 2.1040
 IR Intens:       13.231               1193.336                333.175

 STANDARD THERMODYNAMIC QUANTITIES AT   298.15 K  AND     1.00 ATM

   This Molecule has  1 Imaginary Frequencies
   Zero point vibrational energy:       16.126 kcal/mol

   Atom    1 Element C  Has Mass   12.00000
   Atom    2 Element O  Has Mass   15.99491
   Atom    3 Element O  Has Mass   15.99491
   Atom    4 Element O  Has Mass   15.99491
   Atom    5 Element O  Has Mass   15.99491
   Atom    6 Element H  Has Mass    1.00783
   Molecular Mass:    76.987470 amu
   Principal axes and moments of inertia in amu*Bohr^2:
                             1           2           3
    Eigenvalues --      150.71771   369.55997   520.27576
          X               0.53479    -0.10375     0.83859
          Y               0.36814     0.92190    -0.12072
          Z               0.76058    -0.37328    -0.53121
   Rotational Symmetry Number is   1
   The Molecule is an Asymmetric Top
   Translational Enthalpy:        0.889 kcal/mol
   Rotational Enthalpy:           0.889 kcal/mol
   Vibrational Enthalpy:         16.948 kcal/mol
   gas constant (RT):             0.592 kcal/mol
   Translational Entropy:        38.938  cal/mol.K
   Rotational Entropy:           24.875  cal/mol.K
   Vibrational Entropy:           4.196  cal/mol.K

   Total Enthalpy:               19.318 kcal/mol
   Total Entropy:                68.010  cal/mol.K
 Total job time:  1107.44s(wall), 8543.57s(cpu)
        *  Thank you very much for using Q-Chem.  Have a nice day.  *
 Q-Chem 5.4, Q-Chem, Inc., Pleasanton, CA (2021)
 Q-Chem 5.4.1 for Intel X86 EM64T Linux

User input:
--------------------------------------------------------------

$molecule
read
$end

$rem
JOBTYPE            rpath
SCF_GUESS          read
RPATH_MAX_CYCLES   30
BASIS = 6-311++G(2df,2p)
METHOD = wB97M-V
SOLVENT_METHOD = SMD
SCF_ALGORITHM = DIIS_GDM
SCF_CONVERGENCE = 7
THRESH = 12
$end
--------------------------------------------------------------

 Total energy in the final basis set =     -339.5197198853
   19    -339.5263280669      9.51e-08  Convergence criterion met
 Total energy in the final basis set =     -339.5206545421
   19    -339.5216931130      6.59e-08  Convergence criterion met
 Total energy in the final basis set =     -339.5160167390
   20    -339.5263779817      7.07e-08  Convergence criterion met
 Total energy in the final basis set =     -339.5207001461
   17    -339.5168566389      6.73e-08  Convergence criterion met
 Total energy in the final basis set =     -339.5112006937
   20    -339.5264041756      5.31e-08  Convergence criterion met
 Total energy in the final basis set =     -339.5207238035
   18    -339.5264020185      9.69e-08  Convergence criterion met
 Total energy in the final basis set =     -339.5207235419
   18    -339.5264065011      6.80e-08  Convergence criterion met
 Total energy in the final basis set =     -339.5207270234

                    Orbital Energies (a.u.)
 --------------------------------------------------------------

 Alpha MOs
 -- Occupied --
-19.4965 -19.4597 -19.4140 -19.3643 -10.5586  -1.3927  -1.2766  -1.2122
 -1.0399  -0.7693  -0.7517  -0.6760  -0.6573  -0.6043  -0.5853  -0.5460
 -0.4865  -0.4746  -0.4329  -0.4296

 Beta MOs
 -- Occupied --
-19.4883 -19.4392 -19.4142 -19.3632 -10.5590  -1.3711  -1.2713  -1.2109
 -1.0031  -0.7682  -0.7377  -0.6450  -0.6398  -0.5976  -0.5427  -0.5375
 -0.4768  -0.4655  -0.4149

          Ground-State Mulliken Net Atomic Charges

     Atom                 Charge (a.u.)    Spin (a.u.)
  --------------------------------------------------------
      1 C                     0.526122      -0.011416
      2 O                    -0.292958      -0.003096
      3 O                    -0.434439       0.039243
      4 O                    -0.050129       0.243202
      5 O                    -0.092182       0.734936
      6 H                     0.343586      -0.002869
  --------------------------------------------------------
  Sum of atomic charges =     0.000000

                    Cartesian Multipole Moments
 -----------------------------------------------------------------
    Charge (ESU x 10^10)
                -0.0000
    Dipole Moment (Debye)
         X       1.7996      Y      -0.6878      Z       2.9935
       Tot       3.5598
    Quadrupole Moments (Debye-Ang)
        XX     -29.8197     XY      -2.2652     YY     -29.4587
        XZ      -2.9599     YZ      -3.7847     ZZ     -25.4624

             Standard Nuclear Orientation (Angstroms)
    I     Atom           X                Y                Z
 ----------------------------------------------------------------
    1      C      -0.8879616665    -0.7378520920     0.2174537040
    2      O      -0.5303919011    -1.6361589609     0.9859185005
    3      O      -1.4876823690    -0.5156365480    -0.7747935549
    4      O      -0.2632173821     0.6311554173     0.8894757567
    5      O       0.3479937295     0.2423807884     1.9518529618
    6      H       0.0852773892    -0.9147752047     1.8000274319
 ----------------------------------------------------------------

 Total job time:  4240.86s(wall), 28964.99s(cpu)
        *  Thank you very much for using Q-Chem.  Have a nice day.  *
