 Q-Chem 5.4, Q-Chem, Inc., Pleasanton, CA (2021)
 Q-Chem 5.4.1 for Intel X86 EM64T Linux

User input:
--------------------------------------------------------------
$molecule
0 2
C   -0.8657511   -0.5776906    0.1819016
O   -0.5286371   -1.5479089    0.9987631
O   -1.5350302   -0.6883800   -0.8316552
O   -0.2602640    0.6996019    0.9578884
O    0.3673186    0.1469554    1.9329355
H    0.0863816   -0.9634644    1.8301014
$end

$rem
BASIS = 6-311++G(2df,2p)
GUI = 2
JOB_TYPE = Frequency
METHOD = wB97M-V
SCF_ALGORITHM = DIIS_GDM
MAX_SCF_CYCLES = 400
SCF_CONVERGENCE = 6
THRESH = 11
SYMMETRY_IGNORE = 1
solvent_method = SMD
$end

--------------------------------------------------------------

   17    -339.4766060204      9.56e-07  Convergence criterion met
 Total energy in the final basis set =     -339.4709743850
   16    -339.4765680179      7.99e-07  Convergence criterion met
 Total energy in the final basis set =     -339.4709373091
   17    -339.4766426214      4.74e-07  Convergence criterion met
 Total energy in the final basis set =     -339.4710100775
   16    -339.4764292177      8.00e-07  Convergence criterion met
 Total energy in the final basis set =     -339.4708024408
   14    -339.4767818013      6.15e-07  Convergence criterion met
 Total energy in the final basis set =     -339.4711453434
   16    -339.4766344949      6.36e-07  Convergence criterion met
 Total energy in the final basis set =     -339.4710029563
   17    -339.4765752000      4.47e-07  Convergence criterion met
 Total energy in the final basis set =     -339.4709435190
   16    -339.4765708944      8.80e-07  Convergence criterion met
 Frequency:      -689.07                 248.92                 369.51
 Force Cnst:      0.4582                 0.5766                 0.6933
 Red. Mass:       1.6379                15.7931                 8.6180
 IR Intens:      464.385                  1.725                143.850
 Frequency:       721.34                 784.83                 812.89
 Force Cnst:      3.4892                 3.9138                 3.6620
 Red. Mass:      11.3815                10.7844                 9.4059
 IR Intens:      199.927                101.561                333.011
 Frequency:       936.29                1044.90                1217.65
 Force Cnst:      6.1883                 0.7035                 2.9311
 Red. Mass:      11.9810                 1.0937                 3.3553
 IR Intens:       46.183                153.878               1338.503
 Frequency:      1306.45                1615.81                2006.69
 Force Cnst:     15.4695                12.7808                 2.4986
 Red. Mass:      15.3830                 8.3085                 1.0531
 IR Intens:        1.315               1210.792                211.771

 STANDARD THERMODYNAMIC QUANTITIES AT   298.15 K  AND     1.00 ATM

   This Molecule has  1 Imaginary Frequencies
   Zero point vibrational energy:       15.819 kcal/mol

   Atom    1 Element C  Has Mass   12.00000
   Atom    2 Element O  Has Mass   15.99491
   Atom    3 Element O  Has Mass   15.99491
   Atom    4 Element O  Has Mass   15.99491
   Atom    5 Element O  Has Mass   15.99491
   Atom    6 Element H  Has Mass    1.00783
   Molecular Mass:    76.987470 amu
   Principal axes and moments of inertia in amu*Bohr^2:
                             1           2           3
    Eigenvalues --      137.06802   391.55695   528.24362
          X               0.53578    -0.10582     0.83770
          Y               0.36331     0.92447    -0.11558
          Z               0.76220    -0.36627    -0.53376
   Rotational Symmetry Number is   1
   The Molecule is an Asymmetric Top
   Translational Enthalpy:        0.889 kcal/mol
   Rotational Enthalpy:           0.889 kcal/mol
   Vibrational Enthalpy:         16.571 kcal/mol
   gas constant (RT):             0.592 kcal/mol
   Translational Entropy:        38.938  cal/mol.K
   Rotational Entropy:           24.853  cal/mol.K
   Vibrational Entropy:           3.791  cal/mol.K

   Total Enthalpy:               18.940 kcal/mol
   Total Entropy:                67.583  cal/mol.K
 Total job time:  687.76s(wall), 10482.97s(cpu)
        *  Thank you very much for using Q-Chem.  Have a nice day.  *
 Q-Chem 5.4, Q-Chem, Inc., Pleasanton, CA (2021)
 Q-Chem 5.4.1 for Intel X86 EM64T Linux

User input:
--------------------------------------------------------------

$rem
JOBTYPE = ts
SCF_GUESS = read
GEOM_OPT_HESSIAN = read
MAX_SCF_CYCLES = 350
GEOM_OPT_DMAX = 60
GEOM_OPT_MAX_CYCLES = 250
METHOD = wB97M-v
BASIS = 6-311++G(2df,2p)
SCF_CONVERGENCE = 7
THRESH = 12
SCF_ALGORITHM = DIIS_GDM
solvent_method = SMD
$end

$molecule
read
$end
--------------------------------------------------------------

   19    -339.5041940588      4.32e-08  Convergence criterion met
 Total energy in the final basis set =     -339.4982619428
   18    -339.5064823346      7.82e-08  Convergence criterion met
 Total energy in the final basis set =     -339.5005051637
   19    -339.5080703806      4.88e-08  Convergence criterion met
 Total energy in the final basis set =     -339.5020487683
   19    -339.5090246005      4.52e-08  Convergence criterion met
 Total energy in the final basis set =     -339.5029593741
   19    -339.5094559208      4.12e-08  Convergence criterion met
 Total energy in the final basis set =     -339.5033478922
   19    -339.5095119435      4.00e-08  Convergence criterion met
 Total energy in the final basis set =     -339.5033847122

             Standard Nuclear Orientation (Angstroms)
    I     Atom           X                Y                Z
 ----------------------------------------------------------------
    1      C      -0.8879616665    -0.7378520920     0.2174537040
    2      O      -0.5303919011    -1.6361589609     0.9859185005
    3      O      -1.4876823690    -0.5156365480    -0.7747935549
    4      O      -0.2632173821     0.6311554173     0.8894757567
    5      O       0.3479937295     0.2423807884     1.9518529618
    6      H       0.0852773892    -0.9147752047     1.8000274319
 ----------------------------------------------------------------

   18    -339.5095138616      5.85e-08  Convergence criterion met
 Total energy in the final basis set =     -339.5033849104
 Final energy is   -339.503384910441
 **  OPTIMIZATION CONVERGED  **

                    Orbital Energies (a.u.)
 --------------------------------------------------------------

 Alpha MOs
 -- Occupied --
-19.4940 -19.4832 -19.3930 -19.3720 -10.5480  -1.4080  -1.2688  -1.2121
 -1.0226  -0.7730  -0.7044  -0.6755  -0.6584  -0.6149  -0.5954  -0.5392
 -0.5033  -0.4641  -0.4386  -0.4273

 Beta MOs
 -- Occupied --
-19.4801 -19.4669 -19.3934 -19.3715 -10.5483  -1.3817  -1.2664  -1.2117
 -0.9832  -0.7630  -0.7026  -0.6419  -0.6272  -0.6110  -0.5514  -0.5298
 -0.4977  -0.4588  -0.4178

          Ground-State Mulliken Net Atomic Charges

     Atom                 Charge (a.u.)    Spin (a.u.)
  --------------------------------------------------------
      1 C                     0.480848      -0.014323
      2 O                    -0.384722      -0.008017
      3 O                    -0.389190       0.016870
      4 O                    -0.047954       0.457675
      5 O                    -0.025498       0.554636
      6 H                     0.366516      -0.006841
  --------------------------------------------------------
  Sum of atomic charges =    -0.000000

                    Cartesian Multipole Moments
 -----------------------------------------------------------------
    Charge (ESU x 10^10)
                 0.0000
    Dipole Moment (Debye)
         X       1.6824      Y       0.0508      Z       2.6439
       Tot       3.1342
    Quadrupole Moments (Debye-Ang)
        XX     -29.4508     XY      -1.7491     YY     -30.4441
        XZ      -2.5146     YZ      -1.6939     ZZ     -25.7712

 Total job time:  289.92s(wall), 4436.43s(cpu)
        *  Thank you very much for using Q-Chem.  Have a nice day.  *
