 Q-Chem 5.4, Q-Chem, Inc., Pleasanton, CA (2021)
 Q-Chem 5.4.1 for Intel X86 EM64T Linux

User input:
--------------------------------------------------------------
$molecule
0 2
C    0.5971913    0.1092786    0.1321293
O    1.3747215   -0.7808778   -0.1752965
H   -2.2664866    1.1047335    0.4253625
C   -0.8545716   -0.2046699    0.3882949
O   -1.1141867   -1.5750230    0.2213603
O   -1.6557265    0.5416178   -0.4608741
O    1.0550443    1.3752423    0.2386167
H    0.4713067    2.1083397    0.4789533
O   -1.3163220    0.2172214    1.8951857
O   -2.3501191    1.2188745    1.5961774
H   -2.0827885   -1.7106630    0.3939102
$end

$rem
BASIS = 6-311++G(2df,2p)
GUI = 2
JOB_TYPE = Frequency
METHOD = wB97M-V
SCF_ALGORITHM = DIIS_GDM
MAX_SCF_CYCLES = 400
SCF_CONVERGENCE = 6
THRESH = 11
SYMMETRY_IGNORE = 1
solvent_method = SMD
$end

--------------------------------------------------------------

   23    -529.2512188332      4.55e-07  Convergence criterion met
 Total energy in the final basis set =     -529.2454386720
   20    -529.2513028130      7.51e-07  Convergence criterion met
 Total energy in the final basis set =     -529.2455163584
   20    -529.2511322930      7.65e-07  Convergence criterion met
 Total energy in the final basis set =     -529.2453584519
   20    -529.2512174550      7.52e-07  Convergence criterion met
 Total energy in the final basis set =     -529.2454316526
   20    -529.2512178738      7.57e-07  Convergence criterion met
 Total energy in the final basis set =     -529.2454434452
   20    -529.2512391321      7.57e-07  Convergence criterion met
 Total energy in the final basis set =     -529.2454593992
   20    -529.2511975683      7.51e-07  Convergence criterion met
 Total energy in the final basis set =     -529.2454169870
   20    -529.2511778509      7.62e-07  Convergence criterion met
 Frequency:     -1043.60                 134.96                 169.26
 Force Cnst:      0.8340                 0.1002                 0.1623
 Red. Mass:       1.2997                 9.3347                 9.6177
 IR Intens:      794.569                 12.138                 26.346
 Frequency:       284.02                 327.14                 363.97
 Force Cnst:      0.3080                 0.1759                 0.2022
 Red. Mass:       6.4809                 2.7893                 2.5904
 IR Intens:       57.223                 53.253                272.931
 Frequency:       393.59                 425.26                 488.14
 Force Cnst:      0.3361                 0.9272                 0.9092
 Red. Mass:       3.6824                 8.7017                 6.4763
 IR Intens:       14.522                  9.415                 14.434
 Frequency:       597.66                 613.30                 675.16
 Force Cnst:      0.7733                 0.4401                 0.7419
 Red. Mass:       3.6742                 1.9857                 2.7625
 IR Intens:      320.751                 89.014                138.436
 Frequency:       691.24                 720.00                 777.29
 Force Cnst:      2.3541                 3.0191                 3.9053
 Red. Mass:       8.3620                 9.8848                10.9708
 IR Intens:      123.850                 82.352                 16.129
 Frequency:       828.78                 897.37                 994.04
 Force Cnst:      4.2397                 2.7794                 0.6230
 Red. Mass:      10.4763                 5.8582                 1.0700
 IR Intens:       53.977                367.942                112.669
 Frequency:      1073.04                1115.26                1212.04
 Force Cnst:      4.1137                 0.9246                 3.9603
 Red. Mass:       6.0638                 1.2616                 4.5756
 IR Intens:      621.967                303.557                664.320
 Frequency:      1288.42                1442.16                1689.96
 Force Cnst:      2.9124                 2.6527                16.8893
 Red. Mass:       2.9777                 2.1647                10.0372
 IR Intens:      107.053                274.909                527.565
 Frequency:      1857.20                3458.51                3784.47
 Force Cnst:      2.1023                 7.5123                 9.0136
 Red. Mass:       1.0345                 1.0660                 1.0682
 IR Intens:      178.981                210.780                334.248

 STANDARD THERMODYNAMIC QUANTITIES AT   298.15 K  AND     1.00 ATM

   This Molecule has  1 Imaginary Frequencies
   Zero point vibrational energy:       37.601 kcal/mol

   Atom    1 Element C  Has Mass   12.00000
   Atom    2 Element O  Has Mass   15.99491
   Atom    3 Element H  Has Mass    1.00783
   Atom    4 Element C  Has Mass   12.00000
   Atom    5 Element O  Has Mass   15.99491
   Atom    6 Element O  Has Mass   15.99491
   Atom    7 Element O  Has Mass   15.99491
   Atom    8 Element H  Has Mass    1.00783
   Atom    9 Element O  Has Mass   15.99491
   Atom   10 Element O  Has Mass   15.99491
   Atom   11 Element H  Has Mass    1.00783
   Molecular Mass:   122.992950 amu
   Principal axes and moments of inertia in amu*Bohr^2:
                             1           2           3
    Eigenvalues --      583.98719  1019.05651  1268.78010
          X               0.90403     0.29310     0.31118
          Y              -0.20435     0.93568    -0.28764
          Z              -0.37547     0.19645     0.90577
   Rotational Symmetry Number is   1
   The Molecule is an Asymmetric Top
   Translational Enthalpy:        0.889 kcal/mol
   Rotational Enthalpy:           0.889 kcal/mol
   Vibrational Enthalpy:         40.289 kcal/mol
   gas constant (RT):             0.592 kcal/mol
   Translational Entropy:        40.335  cal/mol.K
   Rotational Entropy:           28.114  cal/mol.K
   Vibrational Entropy:          14.441  cal/mol.K

   Total Enthalpy:               42.659 kcal/mol
   Total Entropy:                82.890  cal/mol.K
 Total job time:  5649.33s(wall), 81524.52s(cpu)
        *  Thank you very much for using Q-Chem.  Have a nice day.  *
 Q-Chem 5.4, Q-Chem, Inc., Pleasanton, CA (2021)
 Q-Chem 5.4.1 for Intel X86 EM64T Linux

User input:
--------------------------------------------------------------

$rem
JOBTYPE = ts
SCF_GUESS = read
GEOM_OPT_HESSIAN = read
MAX_SCF_CYCLES = 350
GEOM_OPT_DMAX = 60
GEOM_OPT_MAX_CYCLES = 250
METHOD = wB97M-v
BASIS = 6-311++G(2df,2p)
SCF_CONVERGENCE = 7
THRESH = 12
SCF_ALGORITHM = DIIS_GDM
UNRESTRICTED = 1
solvent_method = SMD
$end

$molecule
read
$end
--------------------------------------------------------------

   19    -529.3047257435      9.04e-08  Convergence criterion met
 Total energy in the final basis set =     -529.2973286689
   19    -529.3047145583      9.22e-08  Convergence criterion met
 Total energy in the final basis set =     -529.2973200522
   19    -529.3047302768      6.43e-08  Convergence criterion met
 Total energy in the final basis set =     -529.2973286973
   20    -529.3047190687      5.19e-08  Convergence criterion met
 Total energy in the final basis set =     -529.2973187247
   19    -529.3047335370      9.03e-08  Convergence criterion met
 Total energy in the final basis set =     -529.2973342379
   19    -529.3047376827      8.87e-08  Convergence criterion met
 Total energy in the final basis set =     -529.2973382471

             Standard Nuclear Orientation (Angstroms)
    I     Atom           X                Y                Z
 ----------------------------------------------------------------
    1      C       0.6072589961     0.0995536333     0.2712972596
    2      O       1.4192510827    -0.7394525853     0.5581470688
    3      H      -2.1260616732     1.1525978741     0.6669314370
    4      C      -0.8871968854    -0.2005200305     0.1817492238
    5      O      -1.1409735157    -1.4918035736     0.0903525274
    6      O      -1.6789620209     0.6859210684    -0.2986863993
    7      O       0.9279555595     1.3610302873     0.0358978246
    8      H       0.1400538454     1.8737465506    -0.2114863691
    9      O      -1.2145784868     0.1862517434     2.0046042293
   10      O      -2.1040940641     1.1019168681     1.9304935257
   11      H      -2.0845900376    -1.6251677360    -0.0954806277
 ----------------------------------------------------------------

   19    -529.3047378459      7.03e-08  Convergence criterion met
 Total energy in the final basis set =     -529.2973384639
 Final energy is   -529.297338463922
 **  OPTIMIZATION CONVERGED  **

                    Orbital Energies (a.u.)
 --------------------------------------------------------------

 Alpha MOs
 -- Occupied --
-19.4564 -19.4509 -19.4003 -19.3999 -19.3688 -19.3514 -10.5371 -10.5112
 -1.3702  -1.2804  -1.2538  -1.1960  -1.1761  -0.9790  -0.8475  -0.7557
 -0.7338  -0.7035  -0.6681  -0.6335  -0.6256  -0.6025  -0.5859  -0.5603
 -0.5335  -0.5165  -0.4946  -0.4725  -0.4532  -0.4222  -0.4057  -0.3956

 Beta MOs
 -- Occupied --
-19.4408 -19.4356 -19.4003 -19.3999 -19.3689 -19.3513 -10.5375 -10.5112
 -1.3432  -1.2788  -1.2535  -1.1958  -1.1760  -0.9406  -0.8440  -0.7556
 -0.7271  -0.7019  -0.6660  -0.6064  -0.6027  -0.5855  -0.5616  -0.5475
 -0.5235  -0.5152  -0.4888  -0.4707  -0.4529  -0.4142  -0.3843

          Ground-State Mulliken Net Atomic Charges

     Atom                 Charge (a.u.)    Spin (a.u.)
  --------------------------------------------------------
      1 C                     0.351218       0.000169
      2 O                    -0.432917       0.001558
      3 H                     0.380283      -0.009106
      4 C                     0.247887      -0.022178
      5 O                    -0.312887      -0.001969
      6 O                    -0.459288      -0.001475
      7 O                    -0.291018      -0.000782
      8 H                     0.341278       0.000121
      9 O                    -0.085961       0.517700
     10 O                    -0.112525       0.515490
     11 H                     0.373930       0.000472
  --------------------------------------------------------
  Sum of atomic charges =     0.000000

                    Cartesian Multipole Moments
 -----------------------------------------------------------------
    Charge (ESU x 10^10)
                 0.0000
    Dipole Moment (Debye)
         X      -5.2360      Y       1.8023      Z      -2.3993
       Tot       6.0350
    Quadrupole Moments (Debye-Ang)
        XX     -45.0536     XY       5.1697     YY     -41.9506
        XZ      -0.1632     YZ       0.8297     ZZ     -50.7887

 Total job time:  4615.45s(wall), 66417.26s(cpu)
        *  Thank you very much for using Q-Chem.  Have a nice day.  *
