 Q-Chem 5.4, Q-Chem, Inc., Pleasanton, CA (2021)
 Q-Chem 5.4.1 for Intel X86 EM64T Linux

User input:
--------------------------------------------------------------
$molecule
0 2
C         0.5695364666    0.0119301795    0.6700025330
O         1.4789047047   -0.2444354264    1.4529369886
H        -1.5874791836   -0.0042416406   -0.8607253565
C        -0.5883875990   -0.8391455004    0.5767346309
O        -0.5918967654   -1.9098741433    1.3586140692
O        -1.6065446707   -0.7618225066   -0.2626693904
O         0.6742482200    1.1189624247   -0.0988121464
H        -0.1018849591    1.3272414999   -0.6326109051
O        -1.5183944077    0.8592388770    2.0550452789
O        -2.5615200239    1.1545408207    1.5113733859
H        -1.4004993818   -2.4225410845    1.2079938120
$end

$rem
BASIS = 6-311++G**
JOB_TYPE = SP
METHOD = wB97M-V
SCF_ALGORITHM = DIIS_GDM
MAX_SCF_CYCLES = 400
SCF_CONVERGENCE = 7
THRESH = 12
Solvent_method = SMD
$end
--------------------------------------------------------------

             Standard Nuclear Orientation (Angstroms)
    I     Atom           X                Y                Z
 ----------------------------------------------------------------
    1      C       0.5695364666     0.0119301795     0.6700025330
    2      O       1.4789047047    -0.2444354264     1.4529369886
    3      H      -1.5874791836    -0.0042416406    -0.8607253565
    4      C      -0.5883875990    -0.8391455004     0.5767346309
    5      O      -0.5918967654    -1.9098741433     1.3586140692
    6      O      -1.6065446707    -0.7618225066    -0.2626693904
    7      O       0.6742482200     1.1189624247    -0.0988121464
    8      H      -0.1018849591     1.3272414999    -0.6326109051
    9      O      -1.5183944077     0.8592388770     2.0550452789
   10      O      -2.5615200239     1.1545408207     1.5113733859
   11      H      -1.4004993818    -2.4225410845     1.2079938120
 ----------------------------------------------------------------

   29    -529.2484323331      4.39e-08  Convergence criterion met
 Total energy in the final basis set =     -529.2412657898

                    Orbital Energies (a.u.)
 --------------------------------------------------------------

 Alpha MOs
 -- Occupied --
-19.4769 -19.4660 -19.4071 -19.3957 -19.3855 -19.3260 -10.4991 -10.4965
 -1.4189  -1.2787  -1.2367  -1.2005  -1.1519  -0.9503  -0.8579  -0.7597
 -0.7460  -0.6866  -0.6671  -0.6593  -0.6496  -0.5866  -0.5825  -0.5524
 -0.5365  -0.5350  -0.5095  -0.4674  -0.4281  -0.4087  -0.4000  -0.3937

 Beta MOs
 -- Occupied --
-19.4489 -19.4387 -19.4094 -19.3984 -19.3862 -19.3301 -10.5061 -10.4974
 -1.3669  -1.2852  -1.2400  -1.2062  -1.1576  -0.8834  -0.8625  -0.7646
 -0.7486  -0.6902  -0.6402  -0.6005  -0.5919  -0.5654  -0.5557  -0.5548
 -0.5401  -0.5386  -0.5127  -0.4857  -0.4465  -0.4132  -0.2736

          Ground-State Mulliken Net Atomic Charges

     Atom                 Charge (a.u.)    Spin (a.u.)
  --------------------------------------------------------
      1 C                     0.181107      -0.081199
      2 O                    -0.434101      -0.149097
      3 H                     0.341001       0.002889
      4 C                    -0.113642      -0.427106
      5 O                    -0.203840      -0.079514
      6 O                    -0.155623      -0.069731
      7 O                    -0.254388      -0.022654
      8 H                     0.326232       0.000371
      9 O                    -0.032679       0.912802
     10 O                    -0.027100       0.910374
     11 H                     0.373032       0.002865
  --------------------------------------------------------
  Sum of atomic charges =     0.000000

                    Cartesian Multipole Moments
 -----------------------------------------------------------------
    Charge (ESU x 10^10)
                 0.0000
    Dipole Moment (Debye)
         X      -6.5493      Y      -0.6507      Z      -5.9168
       Tot       8.8502
    Quadrupole Moments (Debye-Ang)
        XX     -51.7522     XY       3.5760     YY     -40.8687
        XZ      -3.8074     YZ      -3.2558     ZZ     -50.8567

 Total job time:  102.53s(wall), 392.67s(cpu)
        *  Thank you very much for using Q-Chem.  Have a nice day.  *
