 Q-Chem 5.4, Q-Chem, Inc., Pleasanton, CA (2021)
 Q-Chem 5.4.1 for Intel X86 EM64T Linux

User input:
--------------------------------------------------------------
$molecule
0 2
O         0.7133029404   -0.0261269904    0.0000000000
O        -0.5943607174    0.1201903691    0.0000000000
H        -0.9573116515   -0.7821100384    0.0000000000
$end

$rem
BASIS = 6-311++G(2df,2p)
GUI = 2
JOB_TYPE = Optimization
METHOD = wB97M-V
SCF_ALGORITHM = DIIS_GDM
MAX_SCF_CYCLES = 400
GEOM_OPT_MAX_CYCLES = 150
SCF_CONVERGENCE = 7
THRESH = 12
UNRESTRICTED = 1
SOLVENT_METHOD = smd
$end
--------------------------------------------------------------

   15    -150.9295555394      6.03e-08  Convergence criterion met
 Total energy in the final basis set =     -150.9284552740
   14    -150.9296131014      3.99e-08  Convergence criterion met
 Total energy in the final basis set =     -150.9285045407

             Standard Nuclear Orientation (Angstroms)
    I     Atom           X                Y                Z
 ----------------------------------------------------------------
    1      O       0.7139837603    -0.0221978848     0.0000000000
    2      O      -0.5886126674     0.1177581209     0.0000000000
    3      H      -0.9637405214    -0.7836068958     0.0000000000
 ----------------------------------------------------------------

   14    -150.9296198539      4.83e-08  Convergence criterion met
 Total energy in the final basis set =     -150.9285117922
 Final energy is   -150.928511792183
 **  OPTIMIZATION CONVERGED  **

                    Orbital Energies (a.u.)
 --------------------------------------------------------------

 Alpha MOs
 -- Occupied --
-19.4564 -19.4216  -1.3392  -0.9975  -0.6805  -0.6136  -0.6013  -0.4155
 -0.4085

 Beta MOs
 -- Occupied --
-19.4467 -19.4019  -1.3122  -0.9567  -0.6635  -0.5825  -0.5300  -0.3933

          Ground-State Mulliken Net Atomic Charges

     Atom                 Charge (a.u.)    Spin (a.u.)
  --------------------------------------------------------
      1 O                    -0.223630       0.705779
      2 O                    -0.135218       0.300798
      3 H                     0.358848      -0.006578
  --------------------------------------------------------
  Sum of atomic charges =     0.000000

                    Cartesian Multipole Moments
 -----------------------------------------------------------------
    Charge (ESU x 10^10)
                -0.0000
    Dipole Moment (Debye)
         X      -2.2622      Y      -1.9568      Z      -0.0000
       Tot       2.9911
    Quadrupole Moments (Debye-Ang)
        XX     -10.7154     XY       2.0542     YY     -10.4213
        XZ      -0.0000     YZ      -0.0000     ZZ     -11.2302

 Total job time:  27.02s(wall), 100.64s(cpu)
        *  Thank you very much for using Q-Chem.  Have a nice day.  *
