 Q-Chem 5.4, Q-Chem, Inc., Pleasanton, CA (2021)
 Q-Chem 5.4.1 for Intel X86 EM64T Linux

User input:
--------------------------------------------------------------
$molecule
0 2
O         0.7139837603   -0.0221978848    0.0000000000
O        -0.5886126674    0.1177581209    0.0000000000
H        -0.9637405214   -0.7836068958    0.0000000000
$end

$rem
BASIS = def2-TZVPPD
JOB_TYPE = SP
METHOD = wB97M-V
SCF_ALGORITHM = DIIS_GDM
MAX_SCF_CYCLES = 400
SCF_CONVERGENCE = 7
THRESH = 12
Solvent_method = SMD
$end
--------------------------------------------------------------

             Standard Nuclear Orientation (Angstroms)
    I     Atom           X                Y                Z
 ----------------------------------------------------------------
    1      O       0.7139837603    -0.0221978848     0.0000000000
    2      O      -0.5886126674     0.1177581209     0.0000000000
    3      H      -0.9637405214    -0.7836068958     0.0000000000
 ----------------------------------------------------------------

   15    -150.9419856323      5.58e-08  Convergence criterion met
 Total energy in the final basis set =     -150.9408775706

                    Orbital Energies (a.u.)
 --------------------------------------------------------------

 Alpha MOs
 -- Occupied --
-19.4541 -19.4194  -1.3359  -0.9946  -0.6781  -0.6113  -0.5991  -0.4130
 -0.4062

 Beta MOs
 -- Occupied --
-19.4445 -19.3998  -1.3089  -0.9538  -0.6610  -0.5802  -0.5277  -0.3908

          Ground-State Mulliken Net Atomic Charges

     Atom                 Charge (a.u.)    Spin (a.u.)
  --------------------------------------------------------
      1 O                    -0.244096       0.710512
      2 O                    -0.044734       0.297745
      3 H                     0.288830      -0.008257
  --------------------------------------------------------
  Sum of atomic charges =     0.000000

                    Cartesian Multipole Moments
 -----------------------------------------------------------------
    Charge (ESU x 10^10)
                 0.0000
    Dipole Moment (Debye)
         X      -2.2443      Y      -1.9256      Z       0.0000
       Tot       2.9572
    Quadrupole Moments (Debye-Ang)
        XX     -10.6743     XY       2.0262     YY     -10.4283
        XZ      -0.0000     YZ       0.0000     ZZ     -11.2119

 Total job time:  14.05s(wall), 48.02s(cpu)
        *  Thank you very much for using Q-Chem.  Have a nice day.  *
