 Q-Chem 5.4, Q-Chem, Inc., Pleasanton, CA (2021)
 Q-Chem 5.4.1 for Intel X86 EM64T Linux

User input:
--------------------------------------------------------------
$molecule
0 2
O        -0.7265937369    0.9841477964    0.4577690803
C        -0.2402478792   -0.2480819922    0.2787714565
O        -1.0332743381   -1.2873550349    0.0253175921
C         1.1606206866   -0.4586142849    0.3412688524
O         1.9284314593    0.6167230263    0.6653942023
O         1.7012960441   -1.5446342061    0.1197841305
H        -1.6551020347    0.9778739983    0.7336224659
H        -1.9370777822   -1.0038659970   -0.1746886398
H         1.3743443810    1.3906540943    0.8401361600
$end

$rem
BASIS = def2-TZVPPD
JOB_TYPE = SP
METHOD = wB97M-V
SCF_ALGORITHM = DIIS_GDM
MAX_SCF_CYCLES = 400
SCF_CONVERGENCE = 7
THRESH = 12
Solvent_method = SMD
$end
--------------------------------------------------------------

             Standard Nuclear Orientation (Angstroms)
    I     Atom           X                Y                Z
 ----------------------------------------------------------------
    1      O      -0.7265937369     0.9841477964     0.4577690803
    2      C      -0.2402478792    -0.2480819922     0.2787714565
    3      O      -1.0332743381    -1.2873550349     0.0253175921
    4      C       1.1606206866    -0.4586142849     0.3412688524
    5      O       1.9284314593     0.6167230263     0.6653942023
    6      O       1.7012960441    -1.5446342061     0.1197841305
    7      H      -1.6551020347     0.9778739983     0.7336224659
    8      H      -1.9370777822    -1.0038659970    -0.1746886398
    9      H       1.3743443810     1.3906540943     0.8401361600
 ----------------------------------------------------------------

   17    -378.9685625038      6.97e-08  Convergence criterion met
 Total energy in the final basis set =     -378.9602697910

                    Orbital Energies (a.u.)
 --------------------------------------------------------------

 Alpha MOs
 -- Occupied --
-19.3958 -19.3946 -19.3734 -19.3193 -10.4850 -10.4770  -1.2681  -1.2227
 -1.1938  -1.1433  -0.8749  -0.7328  -0.7226  -0.6823  -0.6128  -0.5903
 -0.5675  -0.5414  -0.5194  -0.4945  -0.4862  -0.4404  -0.4059  -0.2769

 Beta MOs
 -- Occupied --
-19.3928 -19.3913 -19.3723 -19.3142 -10.4767 -10.4757  -1.2600  -1.2184
 -1.1866  -1.1361  -0.8565  -0.7283  -0.7165  -0.6760  -0.5886  -0.5825
 -0.5607  -0.5247  -0.5139  -0.4893  -0.4611  -0.4169  -0.3989

          Ground-State Mulliken Net Atomic Charges

     Atom                 Charge (a.u.)    Spin (a.u.)
  --------------------------------------------------------
      1 O                    -0.367539       0.080699
      2 C                     0.577717       0.466137
      3 O                    -0.338034       0.092031
      4 C                     0.570282       0.148959
      5 O                    -0.429024       0.033206
      6 O                    -0.760098       0.181486
      7 H                     0.241854       0.001202
      8 H                     0.243284      -0.002161
      9 H                     0.261558      -0.001558
  --------------------------------------------------------
  Sum of atomic charges =    -0.000000

                    Cartesian Multipole Moments
 -----------------------------------------------------------------
    Charge (ESU x 10^10)
                -0.0000
    Dipole Moment (Debye)
         X      -9.2188      Y       5.3342      Z       0.9665
       Tot      10.6945
    Quadrupole Moments (Debye-Ang)
        XX     -34.8098     XY       6.8488     YY     -40.8544
        XZ      -2.0648     YZ       2.3931     ZZ     -33.1647

 Total job time:  189.11s(wall), 745.56s(cpu)
        *  Thank you very much for using Q-Chem.  Have a nice day.  *
