 Q-Chem 5.4, Q-Chem, Inc., Pleasanton, CA (2021)
 Q-Chem 5.4.1 for Intel X86 EM64T Linux

User input:
--------------------------------------------------------------
$molecule
-1 2
C        -0.7377342278   -0.7004582887    0.3870869238
O        -0.8871843324   -1.6228435279    1.1927371935
O        -1.2439507399   -0.4101770833   -0.7000052174
$end

$rem
BASIS = 6-311++G(2df,2p)
GUI = 2
JOB_TYPE = Frequency
METHOD = wB97M-V
SOLVENT_METHOD = SMD
SCF_ALGORITHM = DIIS_GDM
MAX_SCF_CYCLES = 400
SCF_CONVERGENCE = 7
THRESH = 12
UNRESTRICTED = 1
SYMMETRY_IGNORE = 1
$end
--------------------------------------------------------------

   14    -188.6915819370      4.94e-08  Convergence criterion met
 Total energy in the final basis set =     -188.6830565728
   15    -188.6915797680      4.46e-08  Convergence criterion met
 Total energy in the final basis set =     -188.6830561755
   15    -188.6915834295      6.44e-08  Convergence criterion met
 Total energy in the final basis set =     -188.6830563055
   14    -188.6915797475      6.24e-08  Convergence criterion met
 Total energy in the final basis set =     -188.6830560983
   15    -188.6915827159      5.59e-08  Convergence criterion met
 Total energy in the final basis set =     -188.6830556635
   15    -188.6915802249      5.55e-08  Convergence criterion met
 Total energy in the final basis set =     -188.6830556432
   15    -188.6915814685      5.85e-08  Convergence criterion met
 Total energy in the final basis set =     -188.6830553691
   15    -188.6915823688      5.32e-08  Convergence criterion met
 Total energy in the final basis set =     -188.6830558459
   15    -188.6915837243      3.74e-08  Convergence criterion met
 Total energy in the final basis set =     -188.6830561998
   14    -188.6915830728      3.95e-08  Convergence criterion met
 Total energy in the final basis set =     -188.6830563495
   15    -188.6915803953      4.80e-08  Convergence criterion met
 Total energy in the final basis set =     -188.6830563989
   13    -188.6915808665      8.09e-08  Convergence criterion met
 Total energy in the final basis set =     -188.6830562865
   15    -188.6915827027      4.25e-08  Convergence criterion met
 Total energy in the final basis set =     -188.6830565591
   15    -188.6915840216      3.88e-08  Convergence criterion met
 Total energy in the final basis set =     -188.6830557444
   15    -188.6915780860      3.74e-08  Convergence criterion met
 Total energy in the final basis set =     -188.6830556646

                    Orbital Energies (a.u.)
 --------------------------------------------------------------

 Alpha MOs
 -- Occupied --
-19.3145 -19.3143 -10.4334  -1.1872  -1.1135  -0.6283  -0.5565  -0.5404
 -0.5316  -0.3956  -0.3945  -0.2518

 Beta MOs
 -- Occupied --
-19.3087 -19.3086 -10.4244  -1.1731  -1.0981  -0.6099  -0.5388  -0.5210
 -0.5042  -0.3896  -0.3717

          Ground-State Mulliken Net Atomic Charges

     Atom                 Charge (a.u.)    Spin (a.u.)
  --------------------------------------------------------
      1 C                     0.013935       0.756001
      2 O                    -0.505988       0.121811
      3 O                    -0.507947       0.122188
  --------------------------------------------------------
  Sum of atomic charges =    -1.000000

                    Cartesian Multipole Moments
 -----------------------------------------------------------------
    Charge (ESU x 10^10)
                -4.8032
    Dipole Moment (Debye)
         X       4.8538      Y       4.6211      Z      -1.2883
       Tot       6.8245
    Quadrupole Moments (Debye-Ang)
        XX     -24.6086     XY      -4.8262     YY     -26.4006
        XZ      -0.2645     YZ       4.8099     ZZ     -25.2489

             Standard Nuclear Orientation (Angstroms)
    I     Atom           X                Y                Z
 ----------------------------------------------------------------
    1      C      -0.7377342278    -0.7004582887     0.3870869238
    2      O      -0.8871843324    -1.6228435279     1.1927371935
    3      O      -1.2439507399    -0.4101770833    -0.7000052174
 ----------------------------------------------------------------

 Frequency:       711.62                1314.42                1612.97
 Force Cnst:      4.2179                14.6598                19.9164
 Red. Mass:      14.1366                14.4015                12.9930
 IR Intens:       35.353                 50.840               1685.691

 STANDARD THERMODYNAMIC QUANTITIES AT   298.15 K  AND     1.00 ATM

   This Molecule has  0 Imaginary Frequencies
   Zero point vibrational energy:        5.202 kcal/mol

   Atom    1 Element C  Has Mass   12.00000
   Atom    2 Element O  Has Mass   15.99491
   Atom    3 Element O  Has Mass   15.99491
   Molecular Mass:    43.989820 amu
   Principal axes and moments of inertia in amu*Bohr^2:
                             1           2           3
    Eigenvalues --        7.07916   147.94687   155.02604
          X               0.15675     0.68782     0.70875
          Y              -0.53280     0.66313    -0.52572
          Z               0.83160     0.29521    -0.47042
   Rotational Symmetry Number is   1
   The Molecule is an Asymmetric Top
   Translational Enthalpy:        0.889 kcal/mol
   Rotational Enthalpy:           0.889 kcal/mol
   Vibrational Enthalpy:          5.279 kcal/mol
   gas constant (RT):             0.592 kcal/mol
   Translational Entropy:        37.270  cal/mol.K
   Rotational Entropy:           19.724  cal/mol.K
   Vibrational Entropy:           0.326  cal/mol.K

   Total Enthalpy:                7.649 kcal/mol
   Total Entropy:                57.319  cal/mol.K
 Total job time:  159.24s(wall), 1208.32s(cpu)
        *  Thank you very much for using Q-Chem.  Have a nice day.  *
