 Q-Chem 5.4, Q-Chem, Inc., Pleasanton, CA (2021)
 Q-Chem 5.4.1 for Intel X86 EM64T Linux

User input:
--------------------------------------------------------------
$molecule
-1 2
C        -0.7266424734   -0.6897642277    0.3918469922
O        -0.8919700806   -1.6307751983    1.1943908825
O        -1.2502567461   -0.4129394739   -0.7064189747
$end

$rem
BASIS = 6-311++G(2df,2p)
GUI = 2
JOB_TYPE = Optimization
METHOD = wB97M-V
SCF_ALGORITHM = DIIS_GDM
MAX_SCF_CYCLES = 400
GEOM_OPT_MAX_CYCLES = 150
SCF_CONVERGENCE = 7
THRESH = 12
UNRESTRICTED = 1
Solvent_method = SMD
$end
--------------------------------------------------------------

   14    -188.6909011056      4.60e-08  Convergence criterion met
 Total energy in the final basis set =     -188.6824763913
   13    -188.6915353358      7.30e-08  Convergence criterion met
 Total energy in the final basis set =     -188.6830308980
   14    -188.6915834500      2.24e-08  Convergence criterion met
 Total energy in the final basis set =     -188.6830560896

             Standard Nuclear Orientation (Angstroms)
    I     Atom           X                Y                Z
 ----------------------------------------------------------------
    1      C      -0.7377342278    -0.7004582887     0.3870869238
    2      O      -0.8871843324    -1.6228435279     1.1927371935
    3      O      -1.2439507399    -0.4101770833    -0.7000052174
 ----------------------------------------------------------------

   14    -188.6915819370      2.21e-08  Convergence criterion met
 Total energy in the final basis set =     -188.6830565729
 Final energy is   -188.683056572853
 **  OPTIMIZATION CONVERGED  **

                    Orbital Energies (a.u.)
 --------------------------------------------------------------

 Alpha MOs
 -- Occupied --
-19.3143 -19.3143 -10.4333  -1.1874  -1.1136  -0.6282  -0.5566  -0.5405
 -0.5317  -0.3956  -0.3945  -0.2517

 Beta MOs
 -- Occupied --
-19.3086 -19.3086 -10.4243  -1.1733  -1.0982  -0.6099  -0.5389  -0.5211
 -0.5043  -0.3896  -0.3716

          Ground-State Mulliken Net Atomic Charges

     Atom                 Charge (a.u.)    Spin (a.u.)
  --------------------------------------------------------
      1 C                     0.013582       0.756240
      2 O                    -0.506462       0.121664
      3 O                    -0.507121       0.122097
  --------------------------------------------------------
  Sum of atomic charges =    -1.000000

                    Cartesian Multipole Moments
 -----------------------------------------------------------------
    Charge (ESU x 10^10)
                -4.8032
    Dipole Moment (Debye)
         X       4.8518      Y       4.6249      Z      -1.2977
       Tot       6.8275
    Quadrupole Moments (Debye-Ang)
        XX     -24.6060     XY      -4.8289     YY     -26.4075
        XZ      -0.2558     YZ       4.8182     ZZ     -25.2479

 Total job time:  32.25s(wall), 248.91s(cpu)
        *  Thank you very much for using Q-Chem.  Have a nice day.  *
