 Q-Chem 5.4, Q-Chem, Inc., Pleasanton, CA (2021)
 Q-Chem 5.4.1 for Intel X86 EM64T Linux

User input:
--------------------------------------------------------------
$molecule
0 2
O        -1.7005575682    1.7829465742    0.6678097587
H        -0.9876783031    2.4000545673    0.4231752626
$end

$rem
BASIS = 6-311++G(3df,2p)
JOB_TYPE = SP
METHOD = wB97M-V
SCF_ALGORITHM = DIIS_GDM
MAX_SCF_CYCLES = 400
SCF_CONVERGENCE = 7
THRESH = 12
Solvent_method = SMD
$end
--------------------------------------------------------------

             Standard Nuclear Orientation (Angstroms)
    I     Atom           X                Y                Z
 ----------------------------------------------------------------
    1      O      -1.7005575682     1.7829465742     0.6678097587
    2      H      -0.9876783031     2.4000545673     0.4231752626
 ----------------------------------------------------------------

   30     -75.7452573661      1.63e-08  Convergence criterion met
 Total energy in the final basis set =      -75.7440803786

                    Orbital Energies (a.u.)
 --------------------------------------------------------------

 Alpha MOs
 -- Occupied --
-19.4035  -1.1428  -0.5914  -0.5208  -0.4653

 Beta MOs
 -- Occupied --
-19.3789  -1.0715  -0.5615  -0.4329

          Ground-State Mulliken Net Atomic Charges

     Atom                 Charge (a.u.)    Spin (a.u.)
  --------------------------------------------------------
      1 O                    -0.331738       1.018755
      2 H                     0.331738      -0.018755
  --------------------------------------------------------
  Sum of atomic charges =     0.000000

                    Cartesian Multipole Moments
 -----------------------------------------------------------------
    Charge (ESU x 10^10)
                 0.0000
    Dipole Moment (Debye)
         X       1.5443      Y       1.3369      Z      -0.5299
       Tot       2.1102
    Quadrupole Moments (Debye-Ang)
        XX     -10.6676     XY       1.8717     YY      -1.0872
        XZ       1.7019     YZ      -0.3433     ZZ      -6.2445

 Total job time:  12.73s(wall), 45.76s(cpu)
        *  Thank you very much for using Q-Chem.  Have a nice day.  *
