 Q-Chem 5.4, Q-Chem, Inc., Pleasanton, CA (2021)
 Q-Chem 5.4.1 for Intel X86 EM64T Linux

User input:
--------------------------------------------------------------
$molecule
-1 2
C         1.4980164545    0.7660547243   -0.1383624944
O         1.8026323618    1.4121745551    0.8766832452
O         1.9798924524    0.8168866210   -1.2928620119
C         0.3676719600   -0.2762671958    0.0083766160
O        -0.0592124773   -0.7989272362   -1.1237456197
O        -0.4187979559   -0.3089060280    1.0215964248
H         0.0738809553   -1.0384616266    1.7114023966
O         1.5892850633   -1.6572546214    0.7212176276
O         1.0518619496   -1.9085083887    1.8610669549
H         0.5714289363   -0.4987389036   -1.8095437390
$end

$rem
BASIS = 6-311++G**
JOB_TYPE = SP
METHOD = wB97M-V
SCF_ALGORITHM = DIIS_GDM
MAX_SCF_CYCLES = 400
SCF_CONVERGENCE = 7
THRESH = 12
Solvent_method = SMD
$end
--------------------------------------------------------------

             Standard Nuclear Orientation (Angstroms)
    I     Atom           X                Y                Z
 ----------------------------------------------------------------
    1      C       1.4980164545     0.7660547243    -0.1383624944
    2      O       1.8026323618     1.4121745551     0.8766832452
    3      O       1.9798924524     0.8168866210    -1.2928620119
    4      C       0.3676719600    -0.2762671958     0.0083766160
    5      O      -0.0592124773    -0.7989272362    -1.1237456197
    6      O      -0.4187979559    -0.3089060280     1.0215964248
    7      H       0.0738809553    -1.0384616266     1.7114023966
    8      O       1.5892850633    -1.6572546214     0.7212176276
    9      O       1.0518619496    -1.9085083887     1.8610669549
   10      H       0.5714289363    -0.4987389036    -1.8095437390
 ----------------------------------------------------------------

   21    -528.8391137278      9.67e-08  Convergence criterion met
 Total energy in the final basis set =     -528.8319505330

                    Orbital Energies (a.u.)
 --------------------------------------------------------------

 Alpha MOs
 -- Occupied --
-19.4308 -19.4272 -19.3887 -19.3576 -19.3056 -19.3027 -10.5155 -10.4646
 -1.3460  -1.2618  -1.1886  -1.1836  -1.1041  -0.9533  -0.7945  -0.7374
 -0.7023  -0.6257  -0.6126  -0.6073  -0.6032  -0.5518  -0.5462  -0.5292
 -0.5126  -0.4835  -0.4621  -0.3987  -0.3877  -0.3866  -0.3766  -0.3644

 Beta MOs
 -- Occupied --
-19.4150 -19.4124 -19.3888 -19.3577 -19.3056 -19.3027 -10.5158 -10.4646
 -1.3189  -1.2600  -1.1885  -1.1833  -1.1041  -0.9134  -0.7923  -0.7361
 -0.6968  -0.6239  -0.6066  -0.5834  -0.5520  -0.5435  -0.5366  -0.5213
 -0.5029  -0.4776  -0.4604  -0.3889  -0.3854  -0.3768  -0.3544

          Ground-State Mulliken Net Atomic Charges

     Atom                 Charge (a.u.)    Spin (a.u.)
  --------------------------------------------------------
      1 C                     0.439945       0.000390
      2 O                    -0.558371      -0.000408
      3 O                    -0.539956       0.000267
      4 C                    -0.289829      -0.025917
      5 O                    -0.129535      -0.005179
      6 O                    -0.309719       0.000523
      7 H                     0.396158      -0.010896
      8 O                    -0.164092       0.534367
      9 O                    -0.156701       0.506624
     10 H                     0.312101       0.000231
  --------------------------------------------------------
  Sum of atomic charges =    -1.000000

                    Cartesian Multipole Moments
 -----------------------------------------------------------------
    Charge (ESU x 10^10)
                -4.8032
    Dipole Moment (Debye)
         X      -8.3924      Y      -2.8564      Z      -2.3378
       Tot       9.1683
    Quadrupole Moments (Debye-Ang)
        XX     -69.4397     XY      -7.9985     YY     -60.5522
        XZ      -1.4006     YZ       1.3462     ZZ     -53.2725

 Total job time:  71.38s(wall), 279.58s(cpu)
        *  Thank you very much for using Q-Chem.  Have a nice day.  *
