 Q-Chem 5.4, Q-Chem, Inc., Pleasanton, CA (2021)
 Q-Chem 5.4.1 for Intel X86 EM64T Linux

User input:
--------------------------------------------------------------
$molecule
0 2
C         0.6072589961    0.0995536333    0.2712972596
O         1.4192510827   -0.7394525853    0.5581470688
H        -2.1260616732    1.1525978741    0.6669314370
C        -0.8871968854   -0.2005200305    0.1817492238
O        -1.1409735157   -1.4918035736    0.0903525274
O        -1.6789620209    0.6859210684   -0.2986863993
O         0.9279555595    1.3610302873    0.0358978246
H         0.1400538454    1.8737465506   -0.2114863691
O        -1.2145784868    0.1862517434    2.0046042293
O        -2.1040940641    1.1019168681    1.9304935257
H        -2.0845900376   -1.6251677360   -0.0954806277
$end

$rem
BASIS = def2-QZVP
JOB_TYPE = SP
METHOD = wB97M-V
SCF_ALGORITHM = DIIS_GDM
MAX_SCF_CYCLES = 400
SCF_CONVERGENCE = 7
THRESH = 12
Solvent_method = SMD
$end
--------------------------------------------------------------

             Standard Nuclear Orientation (Angstroms)
    I     Atom           X                Y                Z
 ----------------------------------------------------------------
    1      C       0.6072589961     0.0995536333     0.2712972596
    2      O       1.4192510827    -0.7394525853     0.5581470688
    3      H      -2.1260616732     1.1525978741     0.6669314370
    4      C      -0.8871968854    -0.2005200305     0.1817492238
    5      O      -1.1409735157    -1.4918035736     0.0903525274
    6      O      -1.6789620209     0.6859210684    -0.2986863993
    7      O       0.9279555595     1.3610302873     0.0358978246
    8      H       0.1400538454     1.8737465506    -0.2114863691
    9      O      -1.2145784868     0.1862517434     2.0046042293
   10      O      -2.1040940641     1.1019168681     1.9304935257
   11      H      -2.0845900376    -1.6251677360    -0.0954806277
 ----------------------------------------------------------------

   21    -529.3660135112      6.08e-08  Convergence criterion met
 Total energy in the final basis set =     -529.3586141292

                    Orbital Energies (a.u.)
 --------------------------------------------------------------

 Alpha MOs
 -- Occupied --
-19.4514 -19.4460 -19.3963 -19.3957 -19.3640 -19.3466 -10.5349 -10.5089
 -1.3661  -1.2771  -1.2505  -1.1926  -1.1728  -0.9759  -0.8447  -0.7532
 -0.7307  -0.7009  -0.6654  -0.6309  -0.6229  -0.6002  -0.5836  -0.5579
 -0.5310  -0.5141  -0.4918  -0.4699  -0.4511  -0.4196  -0.4032  -0.3929

 Beta MOs
 -- Occupied --
-19.4359 -19.4310 -19.3963 -19.3957 -19.3641 -19.3466 -10.5353 -10.5089
 -1.3392  -1.2755  -1.2502  -1.1924  -1.1726  -0.9375  -0.8412  -0.7531
 -0.7240  -0.6993  -0.6633  -0.6038  -0.6004  -0.5832  -0.5592  -0.5449
 -0.5210  -0.5129  -0.4860  -0.4682  -0.4508  -0.4117  -0.3816

          Ground-State Mulliken Net Atomic Charges

     Atom                 Charge (a.u.)    Spin (a.u.)
  --------------------------------------------------------
      1 C                     0.345600      -0.001480
      2 O                    -0.367060       0.001303
      3 H                     0.341418      -0.009634
      4 C                     0.365298      -0.017465
      5 O                    -0.330746      -0.003211
      6 O                    -0.459550      -0.003224
      7 O                    -0.320320       0.000152
      8 H                     0.339025      -0.000140
      9 O                    -0.125503       0.518948
     10 O                    -0.139835       0.514205
     11 H                     0.351671       0.000546
  --------------------------------------------------------
  Sum of atomic charges =     0.000000

                    Cartesian Multipole Moments
 -----------------------------------------------------------------
    Charge (ESU x 10^10)
                 0.0000
    Dipole Moment (Debye)
         X      -5.2112      Y       1.7823      Z      -2.3514
       Tot       5.9886
    Quadrupole Moments (Debye-Ang)
        XX     -44.7762     XY       5.1864     YY     -41.6698
        XZ      -0.2179     YZ       0.8351     ZZ     -50.3547

 Total job time:  1676.95s(wall), 6655.15s(cpu)
        *  Thank you very much for using Q-Chem.  Have a nice day.  *
