 Q-Chem 5.4, Q-Chem, Inc., Pleasanton, CA (2021)
 Q-Chem 5.4.1 for Intel X86 EM64T Linux

User input:
--------------------------------------------------------------
$molecule
-1 1
C         0.5976906250    0.1829920034    0.0003836046
O        -0.2116925879    1.0809780819    0.0002834213
C         2.1394850490    0.4145355110    0.0005056157
O         2.4827968949    1.6120878250    0.0005925006
O         2.8556453186   -0.6050976549    0.0004820653
O         0.2596265223   -1.1065494245    0.0003349708
H        -0.7087105219   -1.1729699418    0.0002458218
$end

$rem
BASIS = 6-311++G**
JOB_TYPE = SP
METHOD = wB97M-V
SCF_ALGORITHM = DIIS_GDM
MAX_SCF_CYCLES = 400
SCF_CONVERGENCE = 7
THRESH = 12
Solvent_method = SMD
$end
--------------------------------------------------------------

             Standard Nuclear Orientation (Angstroms)
    I     Atom           X                Y                Z
 ----------------------------------------------------------------
    1      C       0.5976906250     0.1829920034     0.0003836046
    2      O      -0.2116925879     1.0809780819     0.0002834213
    3      C       2.1394850490     0.4145355110     0.0005056157
    4      O       2.4827968949     1.6120878250     0.0005925006
    5      O       2.8556453186    -0.6050976549     0.0004820653
    6      O       0.2596265223    -1.1065494245     0.0003349708
    7      H      -0.7087105219    -1.1729699418     0.0002458218
 ----------------------------------------------------------------

   14    -377.9308717975      1.79e-08  Convergence criterion met
 Total energy in the final basis set =     -377.9218472511

                    Orbital Energies (a.u.)
 --------------------------------------------------------------

 Alpha MOs
 -- Occupied --
-19.3852 -19.3383 -19.2974 -19.2971 -10.4890 -10.4602  -1.2541  -1.1835
 -1.1629  -1.0965  -0.7996  -0.6755  -0.6192  -0.5956  -0.5849  -0.5437
 -0.5268  -0.5155  -0.4409  -0.4369  -0.3808  -0.3745  -0.3598

          Ground-State Mulliken Net Atomic Charges

     Atom                 Charge (a.u.)
  ----------------------------------------
      1 C                     0.158457
      2 O                    -0.405643
      3 C                     0.255584
      4 O                    -0.566153
      5 O                    -0.564013
      6 O                    -0.232775
      7 H                     0.354543
  ----------------------------------------
  Sum of atomic charges =    -1.000000

                    Cartesian Multipole Moments
 -----------------------------------------------------------------
    Charge (ESU x 10^10)
                -4.8032
    Dipole Moment (Debye)
         X     -13.3423      Y      -4.7358      Z      -0.0025
       Tot      14.1578
    Quadrupole Moments (Debye-Ang)
        XX     -72.4099     XY      -1.8931     YY     -49.8422
        XZ      -0.0072     YZ      -0.0022     ZZ     -33.8912

 Total job time:  57.94s(wall), 128.38s(cpu)
        *  Thank you very much for using Q-Chem.  Have a nice day.  *
