 Q-Chem 5.4, Q-Chem, Inc., Pleasanton, CA (2021)
 Q-Chem 5.4.1 for Intel X86 EM64T Linux

User input:
--------------------------------------------------------------
$molecule
-1 2
C         0.0335825890    0.2156391192    0.2364698461
O         1.2001413651    0.0826017418    0.8943481755
H        -1.1277621868    1.3766541534   -0.6298194523
C        -0.8393693190   -0.8929137460   -0.0274891381
O        -0.5062190370   -2.0526716429    0.3744233366
O        -1.9104150558   -0.6008046154   -0.6669935653
O        -0.2722929998    1.4647120681   -0.1745756269
H         1.6345905442    0.9437645218    0.9577898244
$end

$rem
BASIS = 6-311++G(2df,2p)
GUI = 2
JOB_TYPE = Frequency
METHOD = wB97M-V
SOLVENT_METHOD = SMD
SCF_ALGORITHM = DIIS_GDM
MAX_SCF_CYCLES = 400
SCF_CONVERGENCE = 7
THRESH = 12
UNRESTRICTED = 1
SYMMETRY_IGNORE = 1
$end
--------------------------------------------------------------

   17    -378.4890893365      3.42e-08  Convergence criterion met
 Total energy in the final basis set =     -378.4811379535
   17    -378.4890943105      6.22e-08  Convergence criterion met
 Total energy in the final basis set =     -378.4811368855
   17    -378.4890822917      6.20e-08  Convergence criterion met
 Total energy in the final basis set =     -378.4811370255
   17    -378.4890966419      6.20e-08  Convergence criterion met
 Total energy in the final basis set =     -378.4811368102
   17    -378.4890796091      6.21e-08  Convergence criterion met
 Total energy in the final basis set =     -378.4811367569
   17    -378.4890905181      6.20e-08  Convergence criterion met
 Total energy in the final basis set =     -378.4811375095
   17    -378.4890874494      6.19e-08  Convergence criterion met
 Total energy in the final basis set =     -378.4811377289
   17    -378.4890814371      6.19e-08  Convergence criterion met
 Total energy in the final basis set =     -378.4811377179
   17    -378.4890861989      6.19e-08  Convergence criterion met
 Total energy in the final basis set =     -378.4811375950
   17    -378.4890897229      6.20e-08  Convergence criterion met
 Total energy in the final basis set =     -378.4811376898
   17    -378.4890884384      6.18e-08  Convergence criterion met
 Total energy in the final basis set =     -378.4811377052
   17    -378.4890890794      6.20e-08  Convergence criterion met
 Total energy in the final basis set =     -378.4811372673
   17    -378.4890881277      6.18e-08  Convergence criterion met
 Total energy in the final basis set =     -378.4811371737
   17    -378.4890895737      6.20e-08  Convergence criterion met
 Total energy in the final basis set =     -378.4811379240
   17    -378.4890890386      6.19e-08  Convergence criterion met
 Total energy in the final basis set =     -378.4811379218

                    Orbital Energies (a.u.)
 --------------------------------------------------------------

 Alpha MOs
 -- Occupied --
-19.3752 -19.3719 -19.2793 -19.2780 -10.4455 -10.4346  -1.2407  -1.1722
 -1.1528  -1.0669  -0.8211  -0.7058  -0.6681  -0.5851  -0.5816  -0.5301
 -0.5193  -0.5109  -0.4997  -0.4658  -0.3771  -0.3770  -0.3561  -0.2432

 Beta MOs
 -- Occupied --
-19.3720 -19.3687 -19.2768 -19.2753 -10.4357 -10.4341  -1.2320  -1.1652
 -1.1480  -1.0616  -0.8018  -0.6994  -0.6612  -0.5803  -0.5521  -0.5258
 -0.5150  -0.5068  -0.4822  -0.4399  -0.3711  -0.3561  -0.3527

          Ground-State Mulliken Net Atomic Charges

     Atom                 Charge (a.u.)    Spin (a.u.)
  --------------------------------------------------------
      1 C                     0.151091       0.603150
      2 O                    -0.382770       0.077986
      3 H                     0.331860      -0.002380
      4 C                     0.408983       0.056355
      5 O                    -0.741229       0.093943
      6 O                    -0.741608       0.089792
      7 O                    -0.389593       0.081883
      8 H                     0.363266      -0.000728
  --------------------------------------------------------
  Sum of atomic charges =    -1.000000

                    Cartesian Multipole Moments
 -----------------------------------------------------------------
    Charge (ESU x 10^10)
                -4.8032
    Dipole Moment (Debye)
         X       6.3544      Y       9.6524      Z       0.3427
       Tot      11.5613
    Quadrupole Moments (Debye-Ang)
        XX     -45.8994     XY      -5.5301     YY     -52.7847
        XZ      -2.4418     YZ       2.5531     ZZ     -38.2098

             Standard Nuclear Orientation (Angstroms)
    I     Atom           X                Y                Z
 ----------------------------------------------------------------
    1      C       0.0335825890     0.2156391192     0.2364698461
    2      O       1.2001413651     0.0826017418     0.8943481755
    3      H      -1.1277621868     1.3766541534    -0.6298194523
    4      C      -0.8393693190    -0.8929137460    -0.0274891381
    5      O      -0.5062190370    -2.0526716429     0.3744233366
    6      O      -1.9104150558    -0.6008046154    -0.6669935653
    7      O      -0.2722929998     1.4647120681    -0.1745756269
    8      H       1.6345905442     0.9437645218     0.9577898244
 ----------------------------------------------------------------

 Frequency:       153.76                 217.40                 230.52
 Force Cnst:      0.1814                 0.0430                 0.0972
 Red. Mass:      13.0246                 1.5447                 3.1036
 IR Intens:        6.482                198.755                 33.619
 Frequency:       240.27                 400.88                 522.03
 Force Cnst:      0.1709                 0.5425                 0.1749
 Red. Mass:       5.0258                 5.7297                 1.0891
 IR Intens:       30.892                 34.564                148.235
 Frequency:       560.75                 607.95                 718.33
 Force Cnst:      1.8663                 1.4586                 3.7547
 Red. Mass:      10.0742                 6.6983                12.3503
 IR Intens:        7.858                 29.980                 39.702
 Frequency:       841.02                1095.54                1172.12
 Force Cnst:      5.3292                 1.9096                 1.2511
 Red. Mass:      12.7878                 2.7005                 1.5456
 IR Intens:      127.048                486.027                419.180
 Frequency:      1284.44                1364.57                1465.05
 Force Cnst:      2.2984                 3.7934                16.0566
 Red. Mass:       2.3645                 3.4577                12.6969
 IR Intens:      542.941                539.421               1089.797
 Frequency:      1614.19                3678.79                3792.92
 Force Cnst:      8.1660                 8.4837                 9.0326
 Red. Mass:       5.3192                 1.0640                 1.0656
 IR Intens:       14.586                234.300                257.905

 STANDARD THERMODYNAMIC QUANTITIES AT   298.15 K  AND     1.00 ATM

   This Molecule has  0 Imaginary Frequencies
   Zero point vibrational energy:       28.535 kcal/mol

   Atom    1 Element C  Has Mass   12.00000
   Atom    2 Element O  Has Mass   15.99491
   Atom    3 Element H  Has Mass    1.00783
   Atom    4 Element C  Has Mass   12.00000
   Atom    5 Element O  Has Mass   15.99491
   Atom    6 Element O  Has Mass   15.99491
   Atom    7 Element O  Has Mass   15.99491
   Atom    8 Element H  Has Mass    1.00783
   Molecular Mass:    89.995300 amu
   Principal axes and moments of inertia in amu*Bohr^2:
                             1           2           3
    Eigenvalues --      311.68749   492.03378   803.71965
          X               0.61616     0.63101    -0.47136
          Y               0.76480    -0.62235     0.16661
          Z               0.18822     0.46316     0.86606
   Rotational Symmetry Number is   1
   The Molecule is an Asymmetric Top
   Translational Enthalpy:        0.889 kcal/mol
   Rotational Enthalpy:           0.889 kcal/mol
   Vibrational Enthalpy:         30.598 kcal/mol
   gas constant (RT):             0.592 kcal/mol
   Translational Entropy:        39.404  cal/mol.K
   Rotational Entropy:           26.313  cal/mol.K
   Vibrational Entropy:          11.447  cal/mol.K

   Total Enthalpy:               32.968 kcal/mol
   Total Entropy:                77.164  cal/mol.K
 Total job time:  2590.01s(wall), 20085.90s(cpu)
        *  Thank you very much for using Q-Chem.  Have a nice day.  *
