 Q-Chem 5.4, Q-Chem, Inc., Pleasanton, CA (2021)
 Q-Chem 5.4.1 for Intel X86 EM64T Linux

User input:
--------------------------------------------------------------
$molecule
-1 2
C         0.0442909291    0.2183440684    0.2481717472
O         1.2240985819    0.0849788705    0.9053511110
H        -1.1443148078    1.2973513062   -0.6256563113
C        -0.8424152310   -0.8887051750   -0.0300033516
O        -0.5281989430   -2.0547924961    0.3611950236
O        -1.9028072997   -0.5489513432   -0.6730634035
O        -0.2817756501    1.4671844054   -0.1799353092
H         1.6433783204    0.9615719637    0.9580938937
$end

$rem
BASIS = 6-311++G(2df,2p)
GUI = 2
JOB_TYPE = Optimization
METHOD = wB97M-V
SCF_ALGORITHM = DIIS_GDM
MAX_SCF_CYCLES = 400
GEOM_OPT_MAX_CYCLES = 150
SCF_CONVERGENCE = 7
THRESH = 12
UNRESTRICTED = 1
Solvent_method = SMD
$end
--------------------------------------------------------------

   17    -378.4881045155      4.22e-08  Convergence criterion met
 Total energy in the final basis set =     -378.4803796174
   17    -378.4889127820      6.15e-08  Convergence criterion met
 Total energy in the final basis set =     -378.4810235787
   17    -378.4889045483      6.40e-08  Convergence criterion met
 Total energy in the final basis set =     -378.4809337116
   17    -378.4890384589      6.05e-08  Convergence criterion met
 Total energy in the final basis set =     -378.4810258898
   17    -378.4890578801      6.34e-08  Convergence criterion met
 Total energy in the final basis set =     -378.4811273161
   17    -378.4890901942      6.15e-08  Convergence criterion met
 Total energy in the final basis set =     -378.4811375374

             Standard Nuclear Orientation (Angstroms)
    I     Atom           X                Y                Z
 ----------------------------------------------------------------
    1      C       0.0335825890     0.2156391192     0.2364698461
    2      O       1.2001413651     0.0826017418     0.8943481755
    3      H      -1.1277621868     1.3766541534    -0.6298194523
    4      C      -0.8393693190    -0.8929137460    -0.0274891381
    5      O      -0.5062190370    -2.0526716429     0.3744233366
    6      O      -1.9104150558    -0.6008046154    -0.6669935653
    7      O      -0.2722929998     1.4647120681    -0.1745756269
    8      H       1.6345905442     0.9437645218     0.9577898244
 ----------------------------------------------------------------

   17    -378.4890893368      6.20e-08  Convergence criterion met
 Total energy in the final basis set =     -378.4811379538
 Final energy is   -378.481137953763
 **  OPTIMIZATION CONVERGED  **

                    Orbital Energies (a.u.)
 --------------------------------------------------------------

 Alpha MOs
 -- Occupied --
-19.3752 -19.3719 -19.2793 -19.2780 -10.4455 -10.4346  -1.2407  -1.1722
 -1.1528  -1.0669  -0.8211  -0.7058  -0.6681  -0.5851  -0.5816  -0.5301
 -0.5193  -0.5109  -0.4997  -0.4658  -0.3771  -0.3770  -0.3561  -0.2432

 Beta MOs
 -- Occupied --
-19.3720 -19.3687 -19.2768 -19.2753 -10.4357 -10.4341  -1.2320  -1.1652
 -1.1480  -1.0616  -0.8018  -0.6994  -0.6612  -0.5803  -0.5521  -0.5258
 -0.5150  -0.5068  -0.4822  -0.4398  -0.3711  -0.3561  -0.3527

          Ground-State Mulliken Net Atomic Charges

     Atom                 Charge (a.u.)    Spin (a.u.)
  --------------------------------------------------------
      1 C                     0.151090       0.603140
      2 O                    -0.382835       0.077990
      3 H                     0.331850      -0.002380
      4 C                     0.409031       0.056359
      5 O                    -0.741231       0.093944
      6 O                    -0.741605       0.089792
      7 O                    -0.389607       0.081884
      8 H                     0.363308      -0.000729
  --------------------------------------------------------
  Sum of atomic charges =    -1.000000

                    Cartesian Multipole Moments
 -----------------------------------------------------------------
    Charge (ESU x 10^10)
                -4.8032
    Dipole Moment (Debye)
         X       6.3544      Y       9.6526      Z       0.3448
       Tot      11.5616
    Quadrupole Moments (Debye-Ang)
        XX     -45.8996     XY      -5.5297     YY     -52.7849
        XZ      -2.4380     YZ       2.5560     ZZ     -38.2057

 Total job time:  361.38s(wall), 2798.01s(cpu)
        *  Thank you very much for using Q-Chem.  Have a nice day.  *
