 Q-Chem 5.4, Q-Chem, Inc., Pleasanton, CA (2021)
 Q-Chem 5.4.1 for Intel X86 EM64T Linux

User input:
--------------------------------------------------------------
$molecule
0 2
C         0.5695364666    0.0119301795    0.6700025330
O         1.4789047047   -0.2444354264    1.4529369886
H        -1.5874791836   -0.0042416406   -0.8607253565
C        -0.5883875990   -0.8391455004    0.5767346309
O        -0.5918967654   -1.9098741433    1.3586140692
O        -1.6065446707   -0.7618225066   -0.2626693904
O         0.6742482200    1.1189624247   -0.0988121464
H        -0.1018849591    1.3272414999   -0.6326109051
O        -1.5183944077    0.8592388770    2.0550452789
O        -2.5615200239    1.1545408207    1.5113733859
H        -1.4004993818   -2.4225410845    1.2079938120
$end

$rem
BASIS = 6-31G(d)
JOB_TYPE = SP
METHOD = wB97M-V
SCF_ALGORITHM = DIIS_GDM
MAX_SCF_CYCLES = 400
SCF_CONVERGENCE = 7
THRESH = 12
Solvent_method = SMD
$end
--------------------------------------------------------------

             Standard Nuclear Orientation (Angstroms)
    I     Atom           X                Y                Z
 ----------------------------------------------------------------
    1      C       0.5695364666     0.0119301795     0.6700025330
    2      O       1.4789047047    -0.2444354264     1.4529369886
    3      H      -1.5874791836    -0.0042416406    -0.8607253565
    4      C      -0.5883875990    -0.8391455004     0.5767346309
    5      O      -0.5918967654    -1.9098741433     1.3586140692
    6      O      -1.6065446707    -0.7618225066    -0.2626693904
    7      O       0.6742482200     1.1189624247    -0.0988121464
    8      H      -0.1018849591     1.3272414999    -0.6326109051
    9      O      -1.5183944077     0.8592388770     2.0550452789
   10      O      -2.5615200239     1.1545408207     1.5113733859
   11      H      -1.4004993818    -2.4225410845     1.2079938120
 ----------------------------------------------------------------

   27    -529.0545500305      4.55e-08  Convergence criterion met
 Total energy in the final basis set =     -529.0473834872

                    Orbital Energies (a.u.)
 --------------------------------------------------------------

 Alpha MOs
 -- Occupied --
-19.4887 -19.4765 -19.4190 -19.4069 -19.3945 -19.3325 -10.4978 -10.4946
 -1.4023  -1.2651  -1.2207  -1.1874  -1.1341  -0.9356  -0.8443  -0.7467
 -0.7321  -0.6727  -0.6516  -0.6441  -0.6341  -0.5689  -0.5670  -0.5376
 -0.5222  -0.5204  -0.4934  -0.4517  -0.4091  -0.3891  -0.3834  -0.3760

 Beta MOs
 -- Occupied --
-19.4618 -19.4503 -19.4213 -19.4098 -19.3952 -19.3368 -10.5047 -10.4953
 -1.3506  -1.2718  -1.2239  -1.1936  -1.1402  -0.8696  -0.8487  -0.7516
 -0.7346  -0.6764  -0.6252  -0.5859  -0.5737  -0.5506  -0.5409  -0.5409
 -0.5263  -0.5253  -0.4967  -0.4716  -0.4285  -0.3936  -0.2545

          Ground-State Mulliken Net Atomic Charges

     Atom                 Charge (a.u.)    Spin (a.u.)
  --------------------------------------------------------
      1 C                     0.577417      -0.059747
      2 O                    -0.578043      -0.160853
      3 H                     0.499368       0.002871
      4 C                     0.495012      -0.421108
      5 O                    -0.593635      -0.087099
      6 O                    -0.595289      -0.070358
      7 O                    -0.635164      -0.021407
      8 H                     0.476713       0.000839
      9 O                    -0.067314       0.911433
     10 O                    -0.069700       0.901838
     11 H                     0.490635       0.003591
  --------------------------------------------------------
  Sum of atomic charges =     0.000000

                    Cartesian Multipole Moments
 -----------------------------------------------------------------
    Charge (ESU x 10^10)
                -0.0000
    Dipole Moment (Debye)
         X      -6.1123      Y      -0.6598      Z      -5.6394
       Tot       8.3426
    Quadrupole Moments (Debye-Ang)
        XX     -48.9922     XY       3.5005     YY     -38.9167
        XZ      -3.0594     YZ      -3.3778     ZZ     -48.3863

 Total job time:  54.97s(wall), 205.81s(cpu)
        *  Thank you very much for using Q-Chem.  Have a nice day.  *
