 Q-Chem 5.4, Q-Chem, Inc., Pleasanton, CA (2021)
 Q-Chem 5.4.1 for Intel X86 EM64T Linux

User input:
--------------------------------------------------------------
$molecule
0 2
C         0.6072589961    0.0995536333    0.2712972596
O         1.4192510827   -0.7394525853    0.5581470688
H        -2.1260616732    1.1525978741    0.6669314370
C        -0.8871968854   -0.2005200305    0.1817492238
O        -1.1409735157   -1.4918035736    0.0903525274
O        -1.6789620209    0.6859210684   -0.2986863993
O         0.9279555595    1.3610302873    0.0358978246
H         0.1400538454    1.8737465506   -0.2114863691
O        -1.2145784868    0.1862517434    2.0046042293
O        -2.1040940641    1.1019168681    1.9304935257
H        -2.0845900376   -1.6251677360   -0.0954806277
$end

$rem
BASIS = def2-TZVP
JOB_TYPE = SP
METHOD = wB97M-V
SCF_ALGORITHM = DIIS_GDM
MAX_SCF_CYCLES = 400
SCF_CONVERGENCE = 7
THRESH = 12
Solvent_method = SMD
$end
--------------------------------------------------------------

             Standard Nuclear Orientation (Angstroms)
    I     Atom           X                Y                Z
 ----------------------------------------------------------------
    1      C       0.6072589961     0.0995536333     0.2712972596
    2      O       1.4192510827    -0.7394525853     0.5581470688
    3      H      -2.1260616732     1.1525978741     0.6669314370
    4      C      -0.8871968854    -0.2005200305     0.1817492238
    5      O      -1.1409735157    -1.4918035736     0.0903525274
    6      O      -1.6789620209     0.6859210684    -0.2986863993
    7      O       0.9279555595     1.3610302873     0.0358978246
    8      H       0.1400538454     1.8737465506    -0.2114863691
    9      O      -1.2145784868     0.1862517434     2.0046042293
   10      O      -2.1040940641     1.1019168681     1.9304935257
   11      H      -2.0845900376    -1.6251677360    -0.0954806277
 ----------------------------------------------------------------

   21    -529.3364015079      6.00e-08  Convergence criterion met
 Total energy in the final basis set =     -529.3290021259

                    Orbital Energies (a.u.)
 --------------------------------------------------------------

 Alpha MOs
 -- Occupied --
-19.4518 -19.4463 -19.3962 -19.3958 -19.3644 -19.3462 -10.5338 -10.5074
 -1.3653  -1.2761  -1.2494  -1.1916  -1.1716  -0.9746  -0.8437  -0.7521
 -0.7301  -0.6999  -0.6644  -0.6298  -0.6219  -0.5989  -0.5825  -0.5568
 -0.5300  -0.5129  -0.4909  -0.4688  -0.4498  -0.4184  -0.4020  -0.3918

 Beta MOs
 -- Occupied --
-19.4362 -19.4311 -19.3962 -19.3959 -19.3645 -19.3461 -10.5342 -10.5074
 -1.3384  -1.2745  -1.2491  -1.1914  -1.1715  -0.9363  -0.8402  -0.7521
 -0.7233  -0.6984  -0.6623  -0.6028  -0.5991  -0.5821  -0.5580  -0.5438
 -0.5200  -0.5117  -0.4850  -0.4671  -0.4495  -0.4105  -0.3805

          Ground-State Mulliken Net Atomic Charges

     Atom                 Charge (a.u.)    Spin (a.u.)
  --------------------------------------------------------
      1 C                     0.348304       0.001342
      2 O                    -0.392216       0.001176
      3 H                     0.386762      -0.009854
      4 C                     0.326609      -0.022828
      5 O                    -0.377333      -0.003422
      6 O                    -0.452781      -0.001613
      7 O                    -0.369840       0.000207
      8 H                     0.402369      -0.000187
      9 O                    -0.113306       0.518298
     10 O                    -0.169073       0.516408
     11 H                     0.410505       0.000473
  --------------------------------------------------------
  Sum of atomic charges =     0.000000

                    Cartesian Multipole Moments
 -----------------------------------------------------------------
    Charge (ESU x 10^10)
                 0.0000
    Dipole Moment (Debye)
         X      -5.2365      Y       1.7682      Z      -2.3483
       Tot       6.0051
    Quadrupole Moments (Debye-Ang)
        XX     -44.4921     XY       5.1818     YY     -41.3920
        XZ      -0.1925     YZ       0.8209     ZZ     -50.2159

 Total job time:  183.61s(wall), 722.08s(cpu)
        *  Thank you very much for using Q-Chem.  Have a nice day.  *
