 Q-Chem 5.4, Q-Chem, Inc., Pleasanton, CA (2021)
 Q-Chem 5.4.1 for Intel X86 EM64T Linux

User input:
--------------------------------------------------------------
$molecule
-1 2
O        -0.5898693698    1.4364167686   -0.2011324283
C        -0.0505459724    0.4558973035    0.6364534286
O        -0.9992020981   -0.4709441896    1.0550590018
C         1.1382211719   -0.2198854210   -0.0797845773
O         2.1150602176    0.5155082449   -0.3422678855
O         1.0091565412   -1.4439638257   -0.3063138284
H        -1.2923185257    1.8935755434    0.2782478755
H        -0.6832252495   -1.3229325128    0.7021992984
H         0.3900654810    0.9778650496    1.5657085859
O         1.5169367837    1.7843143470    2.2297602170
H         2.0821964203    1.6320557921    1.4474164122
$end

$rem
BASIS = 6-311++G**
JOB_TYPE = SP
METHOD = wB97M-V
SCF_ALGORITHM = DIIS_GDM
MAX_SCF_CYCLES = 400
SCF_CONVERGENCE = 7
THRESH = 12
Solvent_method = SMD
$end
--------------------------------------------------------------

             Standard Nuclear Orientation (Angstroms)
    I     Atom           X                Y                Z
 ----------------------------------------------------------------
    1      O      -0.5898693698     1.4364167686    -0.2011324283
    2      C      -0.0505459724     0.4558973035     0.6364534286
    3      O      -0.9992020981    -0.4709441896     1.0550590018
    4      C       1.1382211719    -0.2198854210    -0.0797845773
    5      O       2.1150602176     0.5155082449    -0.3422678855
    6      O       1.0091565412    -1.4439638257    -0.3063138284
    7      H      -1.2923185257     1.8935755434     0.2782478755
    8      H      -0.6832252495    -1.3229325128     0.7021992984
    9      H       0.3900654810     0.9778650496     1.5657085859
   10      O       1.5169367837     1.7843143470     2.2297602170
   11      H       2.0821964203     1.6320557921     1.4474164122
 ----------------------------------------------------------------

   23    -454.8562367496      6.92e-08  Convergence criterion met
 Total energy in the final basis set =     -454.8496563939

                    Orbital Energies (a.u.)
 --------------------------------------------------------------

 Alpha MOs
 -- Occupied --
-19.3688 -19.3554 -19.3495 -19.3028 -19.2989 -10.4597 -10.4559  -1.2218
 -1.1789  -1.1488  -1.1214  -1.0968  -0.8219  -0.6947  -0.6543  -0.6259
 -0.5973  -0.5714  -0.5437  -0.5265  -0.5219  -0.5004  -0.4903  -0.4437
 -0.4230  -0.3971  -0.3837  -0.3736  -0.3596

 Beta MOs
 -- Occupied --
-19.3544 -19.3484 -19.3484 -19.3026 -19.2988 -10.4559 -10.4555  -1.2191
 -1.1780  -1.1462  -1.0979  -1.0684  -0.8143  -0.6883  -0.6491  -0.6130
 -0.5915  -0.5521  -0.5413  -0.5222  -0.5182  -0.4925  -0.4265  -0.4163
 -0.4117  -0.3826  -0.3751  -0.3679

          Ground-State Mulliken Net Atomic Charges

     Atom                 Charge (a.u.)    Spin (a.u.)
  --------------------------------------------------------
      1 O                    -0.295142       0.032773
      2 C                    -0.421693       0.196101
      3 O                    -0.302504       0.032608
      4 C                     0.332375      -0.005690
      5 O                    -0.554295       0.004233
      6 O                    -0.550737       0.006597
      7 H                     0.346471       0.000110
      8 H                     0.294399       0.003970
      9 H                     0.268424      -0.023924
     10 O                    -0.407785       0.762590
     11 H                     0.290487      -0.009368
  --------------------------------------------------------
  Sum of atomic charges =    -1.000000

                    Cartesian Multipole Moments
 -----------------------------------------------------------------
    Charge (ESU x 10^10)
                -4.8032
    Dipole Moment (Debye)
         X      -7.4582      Y       0.4474      Z      -0.0748
       Tot       7.4720
    Quadrupole Moments (Debye-Ang)
        XX     -57.1732     XY      -2.7770     YY     -51.1749
        XZ       1.2967     YZ      -4.1535     ZZ     -55.1608

 Total job time:  120.34s(wall), 345.85s(cpu)
        *  Thank you very much for using Q-Chem.  Have a nice day.  *
