 Q-Chem 5.4, Q-Chem, Inc., Pleasanton, CA (2021)
 Q-Chem 5.4.1 for Intel X86 EM64T Linux

User input:
--------------------------------------------------------------
$molecule
0 2
O        -0.4628443119    1.4062765168   -0.3338263962
C         0.0001780212    0.4576397441    0.5699888494
O        -0.9991184032   -0.4100108625    0.9945623619
C         1.1585387697   -0.3123762542   -0.0500006829
O         2.0694287861    0.4823349227   -0.5845675524
O         1.2217330546   -1.5180777080   -0.0011624366
H        -1.0496509914    2.0161099922    0.1307241003
H        -0.6649513630   -1.3165348992    0.9062656099
H         2.7994759286   -0.0533732966   -0.9357000371
H         0.4330768658    0.9910550084    1.4857371922
O         1.2872704652    1.6529693057    2.5904387587
H         2.0679795783    1.7852775305    2.0246481329
$end

$rem
BASIS = 6-31G(d)
JOB_TYPE = SP
METHOD = wB97M-V
SCF_ALGORITHM = DIIS_GDM
MAX_SCF_CYCLES = 400
SCF_CONVERGENCE = 7
THRESH = 12
Solvent_method = SMD
$end
--------------------------------------------------------------

             Standard Nuclear Orientation (Angstroms)
    I     Atom           X                Y                Z
 ----------------------------------------------------------------
    1      O      -0.4628443119     1.4062765168    -0.3338263962
    2      C       0.0001780212     0.4576397441     0.5699888494
    3      O      -0.9991184032    -0.4100108625     0.9945623619
    4      C       1.1585387697    -0.3123762542    -0.0500006829
    5      O       2.0694287861     0.4823349227    -0.5845675524
    6      O       1.2217330546    -1.5180777080    -0.0011624366
    7      H      -1.0496509914     2.0161099922     0.1307241003
    8      H      -0.6649513630    -1.3165348992     0.9062656099
    9      H       2.7994759286    -0.0533732966    -0.9357000371
   10      H       0.4330768658     0.9910550084     1.4857371922
   11      O       1.2872704652     1.6529693057     2.5904387587
   12      H       2.0679795783     1.7852775305     2.0246481329
 ----------------------------------------------------------------

   21    -455.1163511641      9.73e-08  Convergence criterion met
 Total energy in the final basis set =     -455.1088338353

                    Orbital Energies (a.u.)
 --------------------------------------------------------------

 Alpha MOs
 -- Occupied --
-19.4124 -19.3919 -19.3736 -19.3687 -19.3662 -10.5089 -10.4790  -1.2597
 -1.2071  -1.1703  -1.1400  -1.1172  -0.8545  -0.7388  -0.6757  -0.6588
 -0.6324  -0.6024  -0.5716  -0.5533  -0.5331  -0.5145  -0.4895  -0.4735
 -0.4388  -0.4333  -0.4225  -0.4072  -0.3672

 Beta MOs
 -- Occupied --
-19.4124 -19.3728 -19.3714 -19.3676 -19.3659 -10.5089 -10.4752  -1.2592
 -1.2046  -1.1697  -1.1378  -1.0628  -0.8499  -0.7348  -0.6711  -0.6530
 -0.6268  -0.5969  -0.5606  -0.5365  -0.5320  -0.5071  -0.4721  -0.4387
 -0.4195  -0.4134  -0.4052  -0.3883

          Ground-State Mulliken Net Atomic Charges

     Atom                 Charge (a.u.)    Spin (a.u.)
  --------------------------------------------------------
      1 O                    -0.641286       0.026663
      2 C                     0.275532       0.183127
      3 O                    -0.663022       0.034753
      4 C                     0.583579      -0.000521
      5 O                    -0.570429       0.000516
      6 O                    -0.508540       0.008786
      7 H                     0.471207       0.000459
      8 H                     0.457338       0.001628
      9 H                     0.484131      -0.000007
     10 H                     0.220429      -0.063255
     11 O                    -0.562598       0.831877
     12 H                     0.453658      -0.024027
  --------------------------------------------------------
  Sum of atomic charges =     0.000000

                    Cartesian Multipole Moments
 -----------------------------------------------------------------
    Charge (ESU x 10^10)
                -0.0000
    Dipole Moment (Debye)
         X       2.9097      Y       1.0170      Z      -1.5493
       Tot       3.4497
    Quadrupole Moments (Debye-Ang)
        XX     -28.1298     XY       0.7217     YY     -39.8161
        XZ      -1.8596     YZ      -0.2435     ZZ     -47.3972

 Total job time:  46.03s(wall), 171.46s(cpu)
        *  Thank you very much for using Q-Chem.  Have a nice day.  *
