 Q-Chem 5.4, Q-Chem, Inc., Pleasanton, CA (2021)
 Q-Chem 5.4.1 for Intel X86 EM64T Linux

User input:
--------------------------------------------------------------
$molecule
0 2
C         0.6072589961    0.0995536333    0.2712972596
O         1.4192510827   -0.7394525853    0.5581470688
H        -2.1260616732    1.1525978741    0.6669314370
C        -0.8871968854   -0.2005200305    0.1817492238
O        -1.1409735157   -1.4918035736    0.0903525274
O        -1.6789620209    0.6859210684   -0.2986863993
O         0.9279555595    1.3610302873    0.0358978246
H         0.1400538454    1.8737465506   -0.2114863691
O        -1.2145784868    0.1862517434    2.0046042293
O        -2.1040940641    1.1019168681    1.9304935257
H        -2.0845900376   -1.6251677360   -0.0954806277
$end

$rem
BASIS = def2-TZVPD
JOB_TYPE = SP
METHOD = wB97M-V
SCF_ALGORITHM = DIIS_GDM
MAX_SCF_CYCLES = 400
SCF_CONVERGENCE = 7
THRESH = 12
Solvent_method = SMD
$end
--------------------------------------------------------------

             Standard Nuclear Orientation (Angstroms)
    I     Atom           X                Y                Z
 ----------------------------------------------------------------
    1      C       0.6072589961     0.0995536333     0.2712972596
    2      O       1.4192510827    -0.7394525853     0.5581470688
    3      H      -2.1260616732     1.1525978741     0.6669314370
    4      C      -0.8871968854    -0.2005200305     0.1817492238
    5      O      -1.1409735157    -1.4918035736     0.0903525274
    6      O      -1.6789620209     0.6859210684    -0.2986863993
    7      O       0.9279555595     1.3610302873     0.0358978246
    8      H       0.1400538454     1.8737465506    -0.2114863691
    9      O      -1.2145784868     0.1862517434     2.0046042293
   10      O      -2.1040940641     1.1019168681     1.9304935257
   11      H      -2.0845900376    -1.6251677360    -0.0954806277
 ----------------------------------------------------------------

   21    -529.3403071576      5.90e-08  Convergence criterion met
 Total energy in the final basis set =     -529.3329077756

                    Orbital Energies (a.u.)
 --------------------------------------------------------------

 Alpha MOs
 -- Occupied --
-19.4540 -19.4487 -19.3985 -19.3978 -19.3662 -19.3488 -10.5355 -10.5094
 -1.3669  -1.2776  -1.2510  -1.1931  -1.1732  -0.9761  -0.8451  -0.7535
 -0.7314  -0.7013  -0.6658  -0.6312  -0.6235  -0.6006  -0.5840  -0.5582
 -0.5313  -0.5144  -0.4923  -0.4703  -0.4514  -0.4200  -0.4035  -0.3934

 Beta MOs
 -- Occupied --
-19.4385 -19.4335 -19.3985 -19.3978 -19.3664 -19.3487 -10.5359 -10.5094
 -1.3400  -1.2760  -1.2506  -1.1929  -1.1731  -0.9378  -0.8416  -0.7535
 -0.7246  -0.6997  -0.6637  -0.6043  -0.6008  -0.5836  -0.5594  -0.5453
 -0.5214  -0.5132  -0.4864  -0.4685  -0.4511  -0.4121  -0.3820

          Ground-State Mulliken Net Atomic Charges

     Atom                 Charge (a.u.)    Spin (a.u.)
  --------------------------------------------------------
      1 C                     0.540519      -0.002140
      2 O                    -0.646850       0.001149
      3 H                     0.440963      -0.016357
      4 C                     0.806770      -0.004538
      5 O                    -0.454490      -0.004479
      6 O                    -0.685239      -0.001291
      7 O                    -0.469754       0.000635
      8 H                     0.414360      -0.001367
      9 O                    -0.154162       0.508559
     10 O                    -0.214201       0.517800
     11 H                     0.422081       0.002029
  --------------------------------------------------------
  Sum of atomic charges =    -0.000000

                    Cartesian Multipole Moments
 -----------------------------------------------------------------
    Charge (ESU x 10^10)
                -0.0000
    Dipole Moment (Debye)
         X      -5.2113      Y       1.7862      Z      -2.3656
       Tot       5.9953
    Quadrupole Moments (Debye-Ang)
        XX     -44.9102     XY       5.1605     YY     -41.8223
        XZ      -0.2024     YZ       0.8416     ZZ     -50.4940

 Total job time:  430.96s(wall), 1706.49s(cpu)
        *  Thank you very much for using Q-Chem.  Have a nice day.  *
