 Q-Chem 5.4, Q-Chem, Inc., Pleasanton, CA (2021)
 Q-Chem 5.4.1 for Intel X86 EM64T Linux

User input:
--------------------------------------------------------------
$molecule
0 2
C         1.4155218182    1.2207064175   -0.8395260283
C         0.4538738068    0.3638934363   -1.6653587071
O         1.1730366860   -0.7473798209   -2.1338998113
O        -0.0097419999    1.1759955838   -2.7271785857
O         2.5869459834    1.4793773284   -1.4998920379
H         0.5410689347   -1.4267734546   -2.3945171338
H        -0.8275530933    0.8013212562   -3.0742687963
H         1.7236183052    0.6119237354    0.0307964258
H        -0.3868585346    0.0343213710   -1.0560372975
C         1.7000788382    3.1481268939    0.7772168526
O         1.2115961980    4.4166373460    1.1601160918
C         0.7828935720    2.5212664617   -0.2837232505
O         0.6389437156    3.4803080228   -1.2982494328
O        -0.4391550478    2.2439511411    0.3575543109
O         1.7767584015    2.3485140153    1.9194443724
H         2.7096900751    3.2277790481    0.3756278141
H         1.0429110183    4.9310480893    0.3603786010
H         0.2528082254    3.0388861224   -2.0712515511
H        -1.1207458859    2.0756229281   -0.3048612629
H         0.8760090829    2.1550653783    2.2133688265
$end

$rem
BASIS = 6-311++G(2df,2p)
GUI = 2
JOB_TYPE = Frequency
METHOD = wB97M-V
SOLVENT_METHOD = SMD
SCF_ALGORITHM = DIIS_GDM
MAX_SCF_CYCLES = 400
SCF_CONVERGENCE = 7
THRESH = 12
$end
--------------------------------------------------------------

   31    -684.4200124376      3.13e-08  Convergence criterion met
 Total energy in the final basis set =     -684.4136826685
   22    -684.4200219000      3.36e-08  Convergence criterion met
 Total energy in the final basis set =     -684.4136819327
   21    -684.4200012770      8.40e-08  Convergence criterion met
 Total energy in the final basis set =     -684.4136817584
   22    -684.4200141803      3.05e-08  Convergence criterion met
 Total energy in the final basis set =     -684.4136820634
   21    -684.4200092825      8.67e-08  Convergence criterion met
 Total energy in the final basis set =     -684.4136818705
   22    -684.4200057154      3.22e-08  Convergence criterion met
 Total energy in the final basis set =     -684.4136818750
   21    -684.4200175534      8.57e-08  Convergence criterion met
 Total energy in the final basis set =     -684.4136818769
   22    -684.4200140285      3.39e-08  Convergence criterion met
 Total energy in the final basis set =     -684.4136822169
   22    -684.4200117820      3.05e-08  Convergence criterion met
 Total energy in the final basis set =     -684.4136821841
   22    -684.4200113118      3.05e-08  Convergence criterion met
 Total energy in the final basis set =     -684.4136818840
   22    -684.4200119780      3.06e-08  Convergence criterion met
 Total energy in the final basis set =     -684.4136818675
   22    -684.4200119653      3.05e-08  Convergence criterion met
 Total energy in the final basis set =     -684.4136825717
   22    -684.4200127628      3.06e-08  Convergence criterion met
 Total energy in the final basis set =     -684.4136826187
   22    -684.4200130432      3.06e-08  Convergence criterion met
 Total energy in the final basis set =     -684.4136825009
   22    -684.4200115170      3.05e-08  Convergence criterion met
 Total energy in the final basis set =     -684.4136825214

                    Orbital Energies (a.u.)
 --------------------------------------------------------------

 Alpha MOs
 -- Occupied --
-19.3992 -19.3551 -19.3546 -19.3525 -19.3520 -19.3497 -19.3450 -10.4669
-10.4554 -10.4499 -10.4129  -1.2336  -1.2118  -1.1932  -1.1737  -1.1494
 -1.1426  -1.1342  -0.8900  -0.8465  -0.7623  -0.7299  -0.6814  -0.6771
 -0.6641  -0.6491  -0.6314  -0.6091  -0.5896  -0.5769  -0.5665  -0.5412
 -0.5195  -0.5096  -0.4939  -0.4858  -0.4795  -0.4685  -0.4425  -0.4273
 -0.4261  -0.4189  -0.4159  -0.4056  -0.3780

 Beta MOs
 -- Occupied --
-19.3767 -19.3549 -19.3545 -19.3524 -19.3520 -19.3497 -19.3449 -10.4664
-10.4550 -10.4499 -10.4132  -1.2317  -1.2096  -1.1930  -1.1496  -1.1429
 -1.1367  -1.1242  -0.8805  -0.8442  -0.7610  -0.7241  -0.6784  -0.6712
 -0.6603  -0.6486  -0.6295  -0.6009  -0.5835  -0.5659  -0.5424  -0.5354
 -0.5163  -0.5024  -0.4904  -0.4828  -0.4722  -0.4508  -0.4302  -0.4251
 -0.4209  -0.4155  -0.4046  -0.3701

          Ground-State Mulliken Net Atomic Charges

     Atom                 Charge (a.u.)    Spin (a.u.)
  --------------------------------------------------------
      1 C                    -0.027269       0.029022
      2 C                    -0.137836       0.002118
      3 O                    -0.451362       0.000209
      4 O                    -0.419934       0.004797
      5 O                    -0.190306       0.862215
      6 H                     0.339807       0.000239
      7 H                     0.356866      -0.000944
      8 H                     0.320901       0.088309
      9 H                     0.267951      -0.001285
     10 C                     0.035726       0.003576
     11 O                    -0.469081       0.000075
     12 C                    -0.121653       0.004061
     13 O                    -0.413437       0.002978
     14 O                    -0.406500       0.003776
     15 O                    -0.380852       0.001813
     16 H                     0.300017      -0.000376
     17 H                     0.327937      -0.000060
     18 H                     0.362634      -0.000404
     19 H                     0.370242       0.000206
     20 H                     0.336150      -0.000324
  --------------------------------------------------------
  Sum of atomic charges =     0.000000

                    Cartesian Multipole Moments
 -----------------------------------------------------------------
    Charge (ESU x 10^10)
                 0.0000
    Dipole Moment (Debye)
         X      -7.8589      Y      -4.8802      Z      -3.5727
       Tot       9.9168
    Quadrupole Moments (Debye-Ang)
        XX     -75.9079     XY      -9.0512     YY     -79.2882
        XZ      10.7175     YZ      -7.7503     ZZ     -69.5276

             Standard Nuclear Orientation (Angstroms)
    I     Atom           X                Y                Z
 ----------------------------------------------------------------
    1      C       1.4155218182     1.2207064175    -0.8395260283
    2      C       0.4538738068     0.3638934363    -1.6653587071
    3      O       1.1730366860    -0.7473798209    -2.1338998113
    4      O      -0.0097419999     1.1759955838    -2.7271785857
    5      O       2.5869459834     1.4793773284    -1.4998920379
    6      H       0.5410689347    -1.4267734546    -2.3945171338
    7      H      -0.8275530933     0.8013212562    -3.0742687963
    8      H       1.7236183052     0.6119237354     0.0307964258
    9      H      -0.3868585346     0.0343213710    -1.0560372975
   10      C       1.7000788382     3.1481268939     0.7772168526
   11      O       1.2115961980     4.4166373460     1.1601160918
   12      C       0.7828935720     2.5212664617    -0.2837232505
   13      O       0.6389437156     3.4803080228    -1.2982494328
   14      O      -0.4391550478     2.2439511411     0.3575543109
   15      O       1.7767584015     2.3485140153     1.9194443724
   16      H       2.7096900751     3.2277790481     0.3756278141
   17      H       1.0429110183     4.9310480893     0.3603786010
   18      H       0.2528082254     3.0388861224    -2.0712515511
   19      H      -1.1207458859     2.0756229281    -0.3048612629
   20      H       0.8760090829     2.1550653783     2.2133688265
 ----------------------------------------------------------------

 Frequency:        44.82                  86.54                  91.36
 Force Cnst:      0.0071                 0.0286                 0.0341
 Red. Mass:       6.0013                 6.4904                 6.9373
 IR Intens:       12.933                 10.041                  3.955
 Frequency:       138.18                 200.21                 219.16
 Force Cnst:      0.0594                 0.0578                 0.0363
 Red. Mass:       5.2770                 2.4480                 1.2810
 IR Intens:       19.136                142.069                162.467
 Frequency:       233.53                 243.32                 256.11
 Force Cnst:      0.0526                 0.1640                 0.0557
 Red. Mass:       1.6374                 4.7007                 1.4418
 IR Intens:      174.031                 36.217                114.504
 Frequency:       280.71                 288.98                 310.91
 Force Cnst:      0.0995                 0.1933                 0.0741
 Red. Mass:       2.1429                 3.9289                 1.3012
 IR Intens:       18.631                 71.308                118.994
 Frequency:       321.14                 342.72                 358.99
 Force Cnst:      0.1554                 0.2408                 0.1317
 Red. Mass:       2.5575                 3.4799                 1.7347
 IR Intens:       62.037                 16.247                142.261
 Frequency:       421.84                 485.55                 496.59
 Force Cnst:      0.6529                 0.8317                 0.1631
 Red. Mass:       6.2275                 5.9875                 1.1222
 IR Intens:       70.693                 27.618                168.308
 Frequency:       536.64                 572.21                 599.79
 Force Cnst:      1.0071                 0.9904                 1.0330
 Red. Mass:       5.9356                 5.1340                 4.8736
 IR Intens:      111.920                 80.774                 51.305
 Frequency:       738.33                 777.30                 842.17
 Force Cnst:      1.5607                 1.7907                 2.2183
 Red. Mass:       4.8592                 5.0304                 5.3084
 IR Intens:       58.329                 27.680                 21.681
 Frequency:       895.21                1000.39                1027.16
 Force Cnst:      1.4584                 0.8397                 2.0058
 Red. Mass:       3.0888                 1.4241                 3.2268
 IR Intens:       23.098                115.165                 71.468
 Frequency:      1059.60                1129.78                1167.76
 Force Cnst:      1.8209                 1.5247                 1.0122
 Red. Mass:       2.7527                 2.0274                 1.2598
 IR Intens:       87.643                140.836                 13.420
 Frequency:      1173.25                1179.56                1216.94
 Force Cnst:      2.3631                 1.3079                 1.0071
 Red. Mass:       2.9137                 1.5955                 1.1542
 IR Intens:      145.039                140.701                236.146
 Frequency:      1221.54                1248.41                1265.97
 Force Cnst:      1.0891                 2.7855                 2.9190
 Red. Mass:       1.2389                 3.0335                 3.0913
 IR Intens:      144.835                573.762                253.821
 Frequency:      1273.69                1292.52                1309.38
 Force Cnst:      1.9219                 1.9933                 4.7473
 Red. Mass:       2.0108                 2.0251                 4.6997
 IR Intens:       72.399                 73.590                462.721
 Frequency:      1372.74                1394.83                1425.77
 Force Cnst:      1.7715                 1.5750                 1.4575
 Red. Mass:       1.5956                 1.3740                 1.2169
 IR Intens:      148.594                 38.905                  8.243
 Frequency:      1448.54                1473.08                1494.63
 Force Cnst:      1.7574                 2.0797                 2.8782
 Red. Mass:       1.4216                 1.6267                 2.1868
 IR Intens:       74.757                 45.309                  2.501
 Frequency:      2933.29                3102.54                3108.47
 Force Cnst:      5.4518                 6.1690                 6.1915
 Red. Mass:       1.0754                 1.0878                 1.0876
 IR Intens:       41.251                 33.953                 30.395
 Frequency:      3693.61                3776.27                3799.97
 Force Cnst:      8.5743                 8.9530                 9.0673
 Red. Mass:       1.0667                 1.0656                 1.0658
 IR Intens:      364.183                132.728                135.687
 Frequency:      3803.97                3819.05                3825.82
 Force Cnst:      9.0974                 9.1686                 9.2016
 Red. Mass:       1.0671                 1.0670                 1.0670
 IR Intens:      169.636                153.119                172.696

 STANDARD THERMODYNAMIC QUANTITIES AT   298.15 K  AND     1.00 ATM

   This Molecule has  0 Imaginary Frequencies
   Zero point vibrational energy:       95.525 kcal/mol

   Atom    1 Element C  Has Mass   12.00000
   Atom    2 Element C  Has Mass   12.00000
   Atom    3 Element O  Has Mass   15.99491
   Atom    4 Element O  Has Mass   15.99491
   Atom    5 Element O  Has Mass   15.99491
   Atom    6 Element H  Has Mass    1.00783
   Atom    7 Element H  Has Mass    1.00783
   Atom    8 Element H  Has Mass    1.00783
   Atom    9 Element H  Has Mass    1.00783
   Atom   10 Element C  Has Mass   12.00000
   Atom   11 Element O  Has Mass   15.99491
   Atom   12 Element C  Has Mass   12.00000
   Atom   13 Element O  Has Mass   15.99491
   Atom   14 Element O  Has Mass   15.99491
   Atom   15 Element O  Has Mass   15.99491
   Atom   16 Element H  Has Mass    1.00783
   Atom   17 Element H  Has Mass    1.00783
   Atom   18 Element H  Has Mass    1.00783
   Atom   19 Element H  Has Mass    1.00783
   Atom   20 Element H  Has Mass    1.00783
   Molecular Mass:   169.034840 amu
   Principal axes and moments of inertia in amu*Bohr^2:
                             1           2           3
    Eigenvalues --      900.55642  2458.35461  2652.80508
          X               0.09836     0.68072     0.72591
          Y               0.69891    -0.56652     0.43654
          Z               0.70841     0.46441    -0.53149
   Rotational Symmetry Number is   1
   The Molecule is an Asymmetric Top
   Translational Enthalpy:        0.889 kcal/mol
   Rotational Enthalpy:           0.889 kcal/mol
   Vibrational Enthalpy:        101.736 kcal/mol
   gas constant (RT):             0.592 kcal/mol
   Translational Entropy:        41.283  cal/mol.K
   Rotational Entropy:           30.152  cal/mol.K
   Vibrational Entropy:          37.986  cal/mol.K

   Total Enthalpy:              104.106 kcal/mol
   Total Entropy:               109.421  cal/mol.K
 Total job time:  24957.35s(wall), 608727.23s(cpu)
        *  Thank you very much for using Q-Chem.  Have a nice day.  *
