 Q-Chem 5.4, Q-Chem, Inc., Pleasanton, CA (2021)
 Q-Chem 5.4.1 for Intel X86 EM64T Linux

User input:
--------------------------------------------------------------
$molecule
0 2
C         1.4319825671    1.1855372157   -0.8222876810
C         0.4687705547    0.3656380379   -1.6831107597
O         1.1697660882   -0.7654449865   -2.1315611524
O         0.0835356362    1.2067412825   -2.7633169707
O         2.6117443264    1.4564480058   -1.4806384244
H         0.5135508060   -1.3924635228   -2.4777694798
H        -0.7597113212    0.8800833647   -3.1187434871
H         1.7300574209    0.5653470463    0.0462584360
H        -0.4131752521    0.0754489746   -1.1052248102
C         1.7242755419    3.1517627261    0.7689772665
O         1.2234469173    4.4322657760    1.0922866793
C         0.7969715422    2.4771144980   -0.2533711344
O         0.5601330066    3.4146605039   -1.2670157328
O        -0.3927916911    2.1321520910    0.4341920568
O         1.7978271166    2.3887496004    1.9407450389
H         2.7409026673    3.2128335377    0.3672717507
H         0.8702257789    4.8118423456    0.2678120990
H         0.2049582578    2.9133568709   -2.0337794481
H        -1.1356558848    2.3494878896   -0.1540977183
H         0.8748860210    2.2390300426    2.2191128716
$end

$rem
BASIS = 6-311++G(2df,2p)
GUI = 2
JOB_TYPE = Optimization
METHOD = wB97M-V
SCF_ALGORITHM = DIIS_GDM
MAX_SCF_CYCLES = 400
GEOM_OPT_MAX_CYCLES = 150
SCF_CONVERGENCE = 7
THRESH = 12
Solvent_method = SMD
$end
--------------------------------------------------------------

   30    -684.4185417814      9.34e-08  Convergence criterion met
 Total energy in the final basis set =     -684.4123565326
   21    -684.4194419339      8.86e-08  Convergence criterion met
 Total energy in the final basis set =     -684.4131072194
   21    -684.4195186996      9.95e-08  Convergence criterion met
 Total energy in the final basis set =     -684.4131414870
   22    -684.4196947126      2.88e-08  Convergence criterion met
 Total energy in the final basis set =     -684.4133119203
   22    -684.4197294109      3.10e-08  Convergence criterion met
 Total energy in the final basis set =     -684.4133552239
   22    -684.4198459515      3.47e-08  Convergence criterion met
 Total energy in the final basis set =     -684.4134731813
   22    -684.4199534828      3.49e-08  Convergence criterion met
 Total energy in the final basis set =     -684.4135720762
   20    -684.4200007572      9.47e-08  Convergence criterion met
   22    -684.4200086962      3.61e-08  Convergence criterion met
 Total energy in the final basis set =     -684.4136633045
   21    -684.4200243153      9.03e-08  Convergence criterion met
 Total energy in the final basis set =     -684.4136698449
   22    -684.4200272055      3.12e-08  Convergence criterion met
 Total energy in the final basis set =     -684.4136739778
   22    -684.4200089507      4.21e-08  Convergence criterion met
 Total energy in the final basis set =     -684.4136694709
   22    -684.4200185040      3.58e-08  Convergence criterion met
 Total energy in the final basis set =     -684.4136805905
   22    -684.4200152272      3.56e-08  Convergence criterion met
 Total energy in the final basis set =     -684.4136819951

             Standard Nuclear Orientation (Angstroms)
    I     Atom           X                Y                Z
 ----------------------------------------------------------------
    1      C       1.4155218182     1.2207064175    -0.8395260283
    2      C       0.4538738068     0.3638934363    -1.6653587071
    3      O       1.1730366860    -0.7473798209    -2.1338998113
    4      O      -0.0097419999     1.1759955838    -2.7271785857
    5      O       2.5869459834     1.4793773284    -1.4998920379
    6      H       0.5410689347    -1.4267734546    -2.3945171338
    7      H      -0.8275530933     0.8013212562    -3.0742687963
    8      H       1.7236183052     0.6119237354     0.0307964258
    9      H      -0.3868585346     0.0343213710    -1.0560372975
   10      C       1.7000788382     3.1481268939     0.7772168526
   11      O       1.2115961980     4.4166373460     1.1601160918
   12      C       0.7828935720     2.5212664617    -0.2837232505
   13      O       0.6389437156     3.4803080228    -1.2982494328
   14      O      -0.4391550478     2.2439511411     0.3575543109
   15      O       1.7767584015     2.3485140153     1.9194443724
   16      H       2.7096900751     3.2277790481     0.3756278141
   17      H       1.0429110183     4.9310480893     0.3603786010
   18      H       0.2528082254     3.0388861224    -2.0712515511
   19      H      -1.1207458859     2.0756229281    -0.3048612629
   20      H       0.8760090829     2.1550653783     2.2133688265
 ----------------------------------------------------------------

   22    -684.4200124375      3.22e-08  Convergence criterion met
 Total energy in the final basis set =     -684.4136826684
 Final energy is   -684.413682668370
 **  OPTIMIZATION CONVERGED  **

                    Orbital Energies (a.u.)
 --------------------------------------------------------------

 Alpha MOs
 -- Occupied --
-19.3992 -19.3551 -19.3546 -19.3525 -19.3520 -19.3497 -19.3450 -10.4669
-10.4554 -10.4499 -10.4129  -1.2336  -1.2118  -1.1932  -1.1737  -1.1493
 -1.1426  -1.1342  -0.8900  -0.8465  -0.7623  -0.7299  -0.6814  -0.6771
 -0.6641  -0.6491  -0.6314  -0.6091  -0.5896  -0.5769  -0.5665  -0.5412
 -0.5195  -0.5096  -0.4939  -0.4858  -0.4795  -0.4685  -0.4425  -0.4273
 -0.4261  -0.4189  -0.4159  -0.4056  -0.3780

 Beta MOs
 -- Occupied --
-19.3767 -19.3549 -19.3545 -19.3524 -19.3520 -19.3497 -19.3449 -10.4664
-10.4550 -10.4499 -10.4132  -1.2317  -1.2096  -1.1930  -1.1496  -1.1429
 -1.1367  -1.1242  -0.8805  -0.8442  -0.7610  -0.7241  -0.6784  -0.6712
 -0.6603  -0.6486  -0.6295  -0.6009  -0.5835  -0.5659  -0.5424  -0.5354
 -0.5163  -0.5024  -0.4904  -0.4828  -0.4722  -0.4507  -0.4302  -0.4251
 -0.4209  -0.4155  -0.4046  -0.3701

          Ground-State Mulliken Net Atomic Charges

     Atom                 Charge (a.u.)    Spin (a.u.)
  --------------------------------------------------------
      1 C                    -0.027290       0.029022
      2 C                    -0.137774       0.002117
      3 O                    -0.451366       0.000209
      4 O                    -0.419937       0.004797
      5 O                    -0.190306       0.862213
      6 H                     0.339807       0.000239
      7 H                     0.356865      -0.000944
      8 H                     0.320906       0.088308
      9 H                     0.267946      -0.001285
     10 C                     0.035809       0.003578
     11 O                    -0.469082       0.000076
     12 C                    -0.121706       0.004061
     13 O                    -0.413439       0.002978
     14 O                    -0.406529       0.003777
     15 O                    -0.381045       0.001813
     16 H                     0.300061      -0.000377
     17 H                     0.327934      -0.000060
     18 H                     0.362635      -0.000404
     19 H                     0.370214       0.000206
     20 H                     0.336295      -0.000323
  --------------------------------------------------------
  Sum of atomic charges =     0.000000

                    Cartesian Multipole Moments
 -----------------------------------------------------------------
    Charge (ESU x 10^10)
                 0.0000
    Dipole Moment (Debye)
         X      -7.8590      Y      -4.8799      Z      -3.5705
       Tot       9.9159
    Quadrupole Moments (Debye-Ang)
        XX     -75.9097     XY      -9.0511     YY     -79.2879
        XZ      10.7181     YZ      -7.7455     ZZ     -69.5193

 Total job time:  11140.17s(wall), 84597.96s(cpu)
        *  Thank you very much for using Q-Chem.  Have a nice day.  *
