 Q-Chem 5.4, Q-Chem, Inc., Pleasanton, CA (2021)
 Q-Chem 5.4.1 for Intel X86 EM64T Linux

User input:
--------------------------------------------------------------
$molecule
0 2
C         0.5259361465    0.2043921395    0.4740676009
O         1.2874533448   -0.5711169147    0.9869908096
H        -2.5875831013    0.7760436896   -0.2342908893
C        -0.9933530291   -0.0778802264    0.4538855820
O        -1.1924198531   -1.3245821325   -0.0584423260
O        -1.6382660789    0.9534424243   -0.1592693111
O         0.9252740252    1.3236119123   -0.1025326688
H         0.1686586019    1.8175050908   -0.4603742573
O        -1.4339563021   -0.1633635542    1.8680049276
O        -1.1076507085    0.9154251556    2.5200574009
H        -2.1404694451   -1.4927940843   -0.1674083686
$end

$rem
BASIS = 6-31G(d)
JOB_TYPE = SP
METHOD = wB97M-V
SCF_ALGORITHM = DIIS_GDM
MAX_SCF_CYCLES = 400
SCF_CONVERGENCE = 7
THRESH = 12
Solvent_method = SMD
$end
--------------------------------------------------------------

             Standard Nuclear Orientation (Angstroms)
    I     Atom           X                Y                Z
 ----------------------------------------------------------------
    1      C       0.5259361465     0.2043921395     0.4740676009
    2      O       1.2874533448    -0.5711169147     0.9869908096
    3      H      -2.5875831013     0.7760436896    -0.2342908893
    4      C      -0.9933530291    -0.0778802264     0.4538855820
    5      O      -1.1924198531    -1.3245821325    -0.0584423260
    6      O      -1.6382660789     0.9534424243    -0.1592693111
    7      O       0.9252740252     1.3236119123    -0.1025326688
    8      H       0.1686586019     1.8175050908    -0.4603742573
    9      O      -1.4339563021    -0.1633635542     1.8680049276
   10      O      -1.1076507085     0.9154251556     2.5200574009
   11      H      -2.1404694451    -1.4927940843    -0.1674083686
 ----------------------------------------------------------------

   21    -529.0998980672      8.61e-08  Convergence criterion met
 Total energy in the final basis set =     -529.0931888605

                    Orbital Energies (a.u.)
 --------------------------------------------------------------

 Alpha MOs
 -- Occupied --
-19.4821 -19.4435 -19.4130 -19.3994 -19.3938 -19.3624 -10.5466 -10.5148
 -1.3537  -1.2635  -1.2350  -1.1826  -1.1637  -0.9991  -0.8505  -0.7455
 -0.7089  -0.6979  -0.6784  -0.6115  -0.6022  -0.5842  -0.5638  -0.5616
 -0.5196  -0.4951  -0.4820  -0.4397  -0.4357  -0.4125  -0.3983  -0.3895

 Beta MOs
 -- Occupied --
-19.4730 -19.4245 -19.4130 -19.3992 -19.3938 -19.3624 -10.5469 -10.5147
 -1.3309  -1.2609  -1.2328  -1.1825  -1.1636  -0.9651  -0.8454  -0.7450
 -0.7070  -0.6851  -0.6727  -0.5880  -0.5838  -0.5699  -0.5621  -0.5378
 -0.5170  -0.4846  -0.4750  -0.4371  -0.4352  -0.4059  -0.3767

          Ground-State Mulliken Net Atomic Charges

     Atom                 Charge (a.u.)    Spin (a.u.)
  --------------------------------------------------------
      1 C                     0.602413       0.005550
      2 O                    -0.497847      -0.001828
      3 H                     0.490019      -0.000502
      4 C                     0.643635      -0.008304
      5 O                    -0.627959      -0.000890
      6 O                    -0.632710       0.005696
      7 O                    -0.585704       0.001196
      8 H                     0.495714      -0.000053
      9 O                    -0.193913       0.289382
     10 O                    -0.177268       0.709824
     11 H                     0.483622      -0.000071
  --------------------------------------------------------
  Sum of atomic charges =     0.000000

                    Cartesian Multipole Moments
 -----------------------------------------------------------------
    Charge (ESU x 10^10)
                 0.0000
    Dipole Moment (Debye)
         X      -7.2874      Y       1.3025      Z      -4.5016
       Tot       8.6641
    Quadrupole Moments (Debye-Ang)
        XX     -32.9730     XY       3.0010     YY     -43.1114
        XZ       2.1794     YZ      -1.2274     ZZ     -52.1092

 Total job time:  44.46s(wall), 166.51s(cpu)
        *  Thank you very much for using Q-Chem.  Have a nice day.  *
