 Q-Chem 5.4, Q-Chem, Inc., Pleasanton, CA (2021)
 Q-Chem 5.4.1 for Intel X86 EM64T Linux

User input:
--------------------------------------------------------------
$molecule
-1 2
C         0.6332016938    0.2492218888    0.7584201423
O         1.4025855345   -0.2466265649    1.5928966321
H        -1.9375709960   -1.0123331655   -0.8866207339
C        -0.5876356319   -0.6521105713    0.4044916578
O        -0.8569532521   -1.6133086963    1.1906387653
O        -1.1874161180   -0.4200235349   -0.6924266891
O         0.6788790895    1.3139223991    0.1285257991
O        -1.4798178908    1.1120009332    2.5219901422
O        -2.4778756125    0.8597842175    1.6870392901
H        -1.6207131163   -2.1609506057    0.9312915941
$end

$rem
BASIS = 6-311++G**
JOB_TYPE = SP
METHOD = wB97M-V
SCF_ALGORITHM = DIIS_GDM
MAX_SCF_CYCLES = 400
SCF_CONVERGENCE = 7
THRESH = 12
Solvent_method = SMD
$end
--------------------------------------------------------------

             Standard Nuclear Orientation (Angstroms)
    I     Atom           X                Y                Z
 ----------------------------------------------------------------
    1      C       0.6332016938     0.2492218888     0.7584201423
    2      O       1.4025855345    -0.2466265649     1.5928966321
    3      H      -1.9375709960    -1.0123331655    -0.8866207339
    4      C      -0.5876356319    -0.6521105713     0.4044916578
    5      O      -0.8569532521    -1.6133086963     1.1906387653
    6      O      -1.1874161180    -0.4200235349    -0.6924266891
    7      O       0.6788790895     1.3139223991     0.1285257991
    8      O      -1.4798178908     1.1120009332     2.5219901422
    9      O      -2.4778756125     0.8597842175     1.6870392901
   10      H      -1.6207131163    -2.1609506057     0.9312915941
 ----------------------------------------------------------------

   27    -528.8154525116      7.76e-08  Convergence criterion met
 Total energy in the final basis set =     -528.8073025095

                    Orbital Energies (a.u.)
 --------------------------------------------------------------

 Alpha MOs
 -- Occupied --
-19.4401 -19.4397 -19.3386 -19.3384 -19.3082 -19.3080 -10.5538 -10.4795
 -1.3296  -1.2477  -1.2218  -1.1992  -1.1147  -0.8714  -0.8654  -0.7780
 -0.7138  -0.6386  -0.6314  -0.5763  -0.5561  -0.5428  -0.5371  -0.5254
 -0.5216  -0.5051  -0.4922  -0.3946  -0.3902  -0.3847  -0.3261  -0.2950

 Beta MOs
 -- Occupied --
-19.4401 -19.4397 -19.3243 -19.3241 -19.3082 -19.3080 -10.5538 -10.4795
 -1.3296  -1.2477  -1.1996  -1.1921  -1.1147  -0.8714  -0.8233  -0.7780
 -0.7138  -0.6382  -0.6314  -0.5762  -0.5561  -0.5414  -0.5343  -0.5083
 -0.5007  -0.4773  -0.4379  -0.3943  -0.3899  -0.3846  -0.2756

          Ground-State Mulliken Net Atomic Charges

     Atom                 Charge (a.u.)    Spin (a.u.)
  --------------------------------------------------------
      1 C                     0.234250       0.005657
      2 O                    -0.499340      -0.000711
      3 H                     0.393294      -0.000135
      4 C                     0.042102      -0.005518
      5 O                    -0.073658      -0.001898
      6 O                    -0.064183       0.000503
      7 O                    -0.506664      -0.000401
      8 O                    -0.443806       0.503751
      9 O                    -0.478045       0.498738
     10 H                     0.396052       0.000014
  --------------------------------------------------------
  Sum of atomic charges =    -1.000000

                    Cartesian Multipole Moments
 -----------------------------------------------------------------
    Charge (ESU x 10^10)
                -4.8032
    Dipole Moment (Debye)
         X      -2.5308      Y     -13.2741      Z     -13.2773
       Tot      18.9444
    Quadrupole Moments (Debye-Ang)
        XX     -61.3560     XY      18.8678     YY     -48.0223
        XZ      11.4516     YZ      -8.7248     ZZ     -75.1713

 Total job time:  89.44s(wall), 350.91s(cpu)
        *  Thank you very much for using Q-Chem.  Have a nice day.  *
