 Q-Chem 5.4, Q-Chem, Inc., Pleasanton, CA (2021)
 Q-Chem 5.4.1 for Intel X86 EM64T Linux

User input:
--------------------------------------------------------------
$molecule
0 2
C        -1.5116893994   -0.5633058112    0.5979297540
O        -0.9394121686   -1.3084118198    1.5044541189
O        -1.8451437686   -0.7730962409   -0.5197593096
O        -1.6000247371    1.4841466712    1.8470778063
O        -1.1368838551    1.3372906152    2.9483576054
H        -0.7674141713   -2.2068134145    1.1580386250
$end

$rem
BASIS = 6-311++G(2df,2p)
GUI = 2
JOB_TYPE = Frequency
METHOD = wB97M-V
SOLVENT_METHOD = SMD
SCF_ALGORITHM = DIIS_GDM
MAX_SCF_CYCLES = 400
SCF_CONVERGENCE = 7
THRESH = 12
UNRESTRICTED = 1
SYMMETRY_IGNORE = 1
$end
--------------------------------------------------------------

   23    -339.4574470934      7.47e-08  Convergence criterion met
 Total energy in the final basis set =     -339.4506481390
   17    -339.4574477866      5.02e-08  Convergence criterion met
 Total energy in the final basis set =     -339.4506478518
   17    -339.4574458460      4.90e-08  Convergence criterion met
 Total energy in the final basis set =     -339.4506478871
   17    -339.4574435818      4.93e-08  Convergence criterion met
 Total energy in the final basis set =     -339.4506476077
   17    -339.4574494014      5.10e-08  Convergence criterion met
 Total energy in the final basis set =     -339.4506474880
   17    -339.4574457828      4.92e-08  Convergence criterion met
 Total energy in the final basis set =     -339.4506465894
   17    -339.4574453025      4.89e-08  Convergence criterion met
 Total energy in the final basis set =     -339.4506466342
   17    -339.4574447837      4.93e-08  Convergence criterion met
 Total energy in the final basis set =     -339.4506471962
   17    -339.4574456173      4.89e-08  Convergence criterion met
 Total energy in the final basis set =     -339.4506466926
   17    -339.4574474524      4.92e-08  Convergence criterion met
 Total energy in the final basis set =     -339.4506481685
   17    -339.4574466294      4.95e-08  Convergence criterion met
 Total energy in the final basis set =     -339.4506480043
   17    -339.4574456508      4.94e-08  Convergence criterion met
 Total energy in the final basis set =     -339.4506474286
   17    -339.4574470923      4.92e-08  Convergence criterion met
 Total energy in the final basis set =     -339.4506474055
   17    -339.4574470878      4.95e-08  Convergence criterion met
 Total energy in the final basis set =     -339.4506478896
   17    -339.4574467745      4.94e-08  Convergence criterion met
 Total energy in the final basis set =     -339.4506480635

                    Orbital Energies (a.u.)
 --------------------------------------------------------------

 Alpha MOs
 -- Occupied --
-19.4901 -19.4751 -19.4101 -19.3734 -10.4904  -1.4297  -1.2646  -1.1911
 -0.9550  -0.7573  -0.6706  -0.6696  -0.6584  -0.6337  -0.5835  -0.5823
 -0.4767  -0.4650  -0.4051  -0.3999

 Beta MOs
 -- Occupied --
-19.4615 -19.4468 -19.4128 -19.3795 -10.5018  -1.3768  -1.2754  -1.2032
 -0.8752  -0.7766  -0.6460  -0.6293  -0.6062  -0.5945  -0.5658  -0.5648
 -0.5004  -0.4682  -0.3250

          Ground-State Mulliken Net Atomic Charges

     Atom                 Charge (a.u.)    Spin (a.u.)
  --------------------------------------------------------
      1 C                     0.212654      -0.673852
      2 O                    -0.239147      -0.000624
      3 O                    -0.339576      -0.181893
      4 O                     0.007605       0.956786
      5 O                    -0.004762       0.939598
      6 H                     0.363225      -0.040015
  --------------------------------------------------------
  Sum of atomic charges =    -0.000000

                    Cartesian Multipole Moments
 -----------------------------------------------------------------
    Charge (ESU x 10^10)
                -0.0000
    Dipole Moment (Debye)
         X       1.1603      Y      -2.5405      Z       0.9566
       Tot       2.9522
    Quadrupole Moments (Debye-Ang)
        XX     -30.1582     XY       1.2104     YY     -20.1680
        XZ      -2.3344     YZ      -3.9626     ZZ     -31.4811

             Standard Nuclear Orientation (Angstroms)
    I     Atom           X                Y                Z
 ----------------------------------------------------------------
    1      C      -1.5116893994    -0.5633058112     0.5979297540
    2      O      -0.9394121686    -1.3084118198     1.5044541189
    3      O      -1.8451437686    -0.7730962409    -0.5197593096
    4      O      -1.6000247371     1.4841466712     1.8470778063
    5      O      -1.1368838551     1.3372906152     2.9483576054
    6      H      -0.7674141713    -2.2068134145     1.1580386250
 ----------------------------------------------------------------

 Frequency:      -129.67                  52.46                  85.37
 Force Cnst:      0.1436                 0.0213                 0.0393
 Red. Mass:      14.4986                13.1562                 9.1518
 IR Intens:       30.457                  0.745                  5.217
 Frequency:       118.48                 249.86                 548.23
 Force Cnst:      0.0264                 0.5515                 0.2718
 Red. Mass:       3.1964                14.9943                 1.5347
 IR Intens:       29.459                  0.721                198.441
 Frequency:       605.03                1075.29                1287.56
 Force Cnst:      0.8275                 3.4341                 1.5364
 Red. Mass:       3.8367                 5.0409                 1.5730
 IR Intens:      113.387                338.178                101.604
 Frequency:      1610.32                1821.26                3611.54
 Force Cnst:     23.7567                25.9618                 8.1754
 Red. Mass:      15.5493                13.2843                 1.0638
 IR Intens:      322.966                938.985                176.775

 STANDARD THERMODYNAMIC QUANTITIES AT   298.15 K  AND     1.00 ATM

   This Molecule has  1 Imaginary Frequencies
   Zero point vibrational energy:       15.819 kcal/mol

   Atom    1 Element C  Has Mass   12.00000
   Atom    2 Element O  Has Mass   15.99491
   Atom    3 Element O  Has Mass   15.99491
   Atom    4 Element O  Has Mass   15.99491
   Atom    5 Element O  Has Mass   15.99491
   Atom    6 Element H  Has Mass    1.00783
   Molecular Mass:    76.987470 amu
   Principal axes and moments of inertia in amu*Bohr^2:
                             1           2           3
    Eigenvalues --      161.25623   646.04126   807.24561
          X               0.06821    -0.42124     0.90438
          Y               0.70353     0.66304     0.25577
          Z               0.70738    -0.61882    -0.34158
   Rotational Symmetry Number is   1
   The Molecule is an Asymmetric Top
   Translational Enthalpy:        0.889 kcal/mol
   Rotational Enthalpy:           0.889 kcal/mol
   Vibrational Enthalpy:         17.809 kcal/mol
   gas constant (RT):             0.592 kcal/mol
   Translational Entropy:        38.938  cal/mol.K
   Rotational Entropy:           25.933  cal/mol.K
   Vibrational Entropy:          14.439  cal/mol.K

   Total Enthalpy:               20.178 kcal/mol
   Total Entropy:                79.311  cal/mol.K
 Total job time:  1041.50s(wall), 8036.86s(cpu)
        *  Thank you very much for using Q-Chem.  Have a nice day.  *
