 Q-Chem 5.4, Q-Chem, Inc., Pleasanton, CA (2021)
 Q-Chem 5.4.1 for Intel X86 EM64T Linux

User input:
--------------------------------------------------------------
$molecule
0 3
O        -3.3016872316    4.4705652735    0.5345536189
O        -4.3059970684    3.9312274265    0.1697464811
$end

$rem
BASIS = 6-311++G**
JOB_TYPE = SP
METHOD = wB97M-V
SCF_ALGORITHM = DIIS_GDM
MAX_SCF_CYCLES = 400
SCF_CONVERGENCE = 7
THRESH = 12
Solvent_method = SMD
$end
--------------------------------------------------------------

             Standard Nuclear Orientation (Angstroms)
    I     Atom           X                Y                Z
 ----------------------------------------------------------------
    1      O      -3.3016872316     4.4705652735     0.5345536189
    2      O      -4.3059970684     3.9312274265     0.1697464811
 ----------------------------------------------------------------

   10    -150.3277891437      5.91e-08  Convergence criterion met
 Total energy in the final basis set =     -150.3277891437

                    Orbital Energies (a.u.)
 --------------------------------------------------------------

 Alpha MOs
 -- Occupied --
-19.4900 -19.4899  -1.4478  -0.9595  -0.6784  -0.6784  -0.6662  -0.4104
 -0.4104

 Beta MOs
 -- Occupied --
-19.4598 -19.4595  -1.3910  -0.8730  -0.6202  -0.5712  -0.5712

          Ground-State Mulliken Net Atomic Charges

     Atom                 Charge (a.u.)    Spin (a.u.)
  --------------------------------------------------------
      1 O                    -0.000000       1.000000
      2 O                     0.000000       1.000000
  --------------------------------------------------------
  Sum of atomic charges =    -0.000000

                    Cartesian Multipole Moments
 -----------------------------------------------------------------
    Charge (ESU x 10^10)
                -0.0000
    Dipole Moment (Debye)
         X      -0.0000      Y      -0.0000      Z      -0.0000
       Tot       0.0000
    Quadrupole Moments (Debye-Ang)
        XX     -10.7047     XY      -0.2950     YY     -10.3137
        XZ      -0.1995     YZ      -0.1071     ZZ     -10.2276

 Total job time:  4.12s(wall), 14.34s(cpu)
        *  Thank you very much for using Q-Chem.  Have a nice day.  *
