 Q-Chem 5.4, Q-Chem, Inc., Pleasanton, CA (2021)
 Q-Chem 5.4.1 for Intel X86 EM64T Linux

User input:
--------------------------------------------------------------
$molecule
-1 2
C        -0.9042320565    1.8235343475   -0.1754217250
O        -0.7770808828    1.5778680135    1.0581664037
O        -0.9038101243    3.0197518723   -0.5840282338
O        -1.0312928363    0.8736730666   -0.9992925448
$end

$rem
BASIS = 6-311++G(2df,2p)
GUI = 2
JOB_TYPE = Frequency
METHOD = wB97M-V
SOLVENT_METHOD = SMD
SCF_ALGORITHM = DIIS_GDM
MAX_SCF_CYCLES = 400
SCF_CONVERGENCE = 7
THRESH = 12
$end
--------------------------------------------------------------

   19    -263.9352587100      8.25e-08  Convergence criterion met
 Total energy in the final basis set =     -263.9283939869
   15    -263.9352582572      5.72e-08  Convergence criterion met
 Total energy in the final basis set =     -263.9283935351
   15    -263.9352582799      6.22e-08  Convergence criterion met
 Total energy in the final basis set =     -263.9283935644
   14    -263.9352581098      7.23e-08  Convergence criterion met
 Total energy in the final basis set =     -263.9283934157
   18    -263.9352582506      5.09e-08  Convergence criterion met
 Total energy in the final basis set =     -263.9283935777
   18    -263.9352580224      3.75e-08  Convergence criterion met
 Total energy in the final basis set =     -263.9283933206
   18    -263.9352583480      5.73e-08  Convergence criterion met
 Total energy in the final basis set =     -263.9283936821
   17    -263.9352581598      7.90e-08  Convergence criterion met
 Total energy in the final basis set =     -263.9283940720
   18    -263.9352568772      7.09e-08  Convergence criterion met
 Total energy in the final basis set =     -263.9283936917
   18    -263.9352591759      4.24e-08  Convergence criterion met
 Total energy in the final basis set =     -263.9283939794
   17    -263.9352581253      7.65e-08  Convergence criterion met
 Total energy in the final basis set =     -263.9283938794
   17    -263.9352615406      6.19e-08  Convergence criterion met
 Total energy in the final basis set =     -263.9283932816
   16    -263.9352547391      6.72e-08  Convergence criterion met
 Total energy in the final basis set =     -263.9283935825
   17    -263.9352613207      5.94e-08  Convergence criterion met
 Total energy in the final basis set =     -263.9283935284
   17    -263.9352552388      7.22e-08  Convergence criterion met
 Total energy in the final basis set =     -263.9283936083

                    Orbital Energies (a.u.)
 --------------------------------------------------------------

 Alpha MOs
 -- Occupied --
-19.3422 -19.3420 -19.3418 -10.4903  -1.2488  -1.1220  -1.1219  -0.6561
 -0.5971  -0.5971  -0.5848  -0.4526  -0.4524  -0.4167  -0.4165  -0.3927

 Beta MOs
 -- Occupied --
-19.3319 -19.3317 -19.3315 -10.4913  -1.2338  -1.0997  -1.0996  -0.6415
 -0.5786  -0.5719  -0.5718  -0.4029  -0.4028  -0.3868  -0.3868

          Ground-State Mulliken Net Atomic Charges

     Atom                 Charge (a.u.)    Spin (a.u.)
  --------------------------------------------------------
      1 C                     0.524185      -0.106056
      2 O                    -0.507993       0.368765
      3 O                    -0.506725       0.370299
      4 O                    -0.509467       0.366992
  --------------------------------------------------------
  Sum of atomic charges =    -1.000000

                    Cartesian Multipole Moments
 -----------------------------------------------------------------
    Charge (ESU x 10^10)
                -4.8032
    Dipole Moment (Debye)
         X       4.3428      Y      -8.7488      Z       0.8454
       Tot       9.8039
    Quadrupole Moments (Debye-Ang)
        XX     -27.1161     XY       7.6284     YY     -46.4993
        XZ      -1.5827     YZ       1.5592     ZZ     -30.6415

             Standard Nuclear Orientation (Angstroms)
    I     Atom           X                Y                Z
 ----------------------------------------------------------------
    1      C      -0.9042320565     1.8235343475    -0.1754217250
    2      O      -0.7770808828     1.5778680135     1.0581664037
    3      O      -0.9038101243     3.0197518723    -0.5840282338
    4      O      -1.0312928363     0.8736730666    -0.9992925448
 ----------------------------------------------------------------

 Frequency:      -382.33                -380.83                 820.22
 Force Cnst:      1.2306                 1.2213                 5.0068
 Red. Mass:      14.2889                14.2920                12.6311
 IR Intens:      517.895                519.716                 53.721
 Frequency:      1119.03                1214.75                1219.70
 Force Cnst:     11.8007                12.1287                12.2175
 Red. Mass:      15.9946                13.9505                13.9388
 IR Intens:        0.014                 44.640                 39.582

 STANDARD THERMODYNAMIC QUANTITIES AT   298.15 K  AND     1.00 ATM

   This Molecule has  2 Imaginary Frequencies
   Zero point vibrational energy:        6.253 kcal/mol

   Atom    1 Element C  Has Mass   12.00000
   Atom    2 Element O  Has Mass   15.99491
   Atom    3 Element O  Has Mass   15.99491
   Atom    4 Element O  Has Mass   15.99491
   Molecular Mass:    59.984730 amu
   Principal axes and moments of inertia in amu*Bohr^2:
                             1           2           3
    Eigenvalues --      136.85210   136.93564   273.78774
          X               0.09160     0.07135     0.99324
          Y               0.83592    -0.54755    -0.03775
          Z               0.54115     0.83373    -0.10980
   Rotational Symmetry Number is   1
   The Molecule is an Asymmetric Top
   Translational Enthalpy:        0.889 kcal/mol
   Rotational Enthalpy:           0.889 kcal/mol
   Vibrational Enthalpy:          6.332 kcal/mol
   gas constant (RT):             0.592 kcal/mol
   Translational Entropy:        38.194  cal/mol.K
   Rotational Entropy:           23.155  cal/mol.K
   Vibrational Entropy:           0.326  cal/mol.K

   Total Enthalpy:                8.702 kcal/mol
   Total Entropy:                61.675  cal/mol.K
 Total job time:  377.56s(wall), 2900.05s(cpu)
        *  Thank you very much for using Q-Chem.  Have a nice day.  *
