 Q-Chem 5.4, Q-Chem, Inc., Pleasanton, CA (2021)
 Q-Chem 5.4.1 for Intel X86 EM64T Linux

User input:
--------------------------------------------------------------
$molecule
-1 2
C        -0.9042278895    1.8235876097   -0.1753107545
O        -0.7765672800    1.5768036414    1.0631479889
O        -0.9038194826    3.0245318094   -0.5857870214
O        -1.0318012477    0.8699042394   -1.0026263130
$end

$rem
BASIS = 6-311++G(2df,2p)
GUI = 2
JOB_TYPE = Optimization
METHOD = wB97M-V
SCF_ALGORITHM = DIIS_GDM
MAX_SCF_CYCLES = 400
GEOM_OPT_MAX_CYCLES = 150
SCF_CONVERGENCE = 7
THRESH = 12
UNRESTRICTED = 1
Solvent_method = SMD
$end
--------------------------------------------------------------

   19    -263.9350812655      6.76e-08  Convergence criterion met
 Total energy in the final basis set =     -263.9282909766
   14    -263.9352330254      9.92e-08  Convergence criterion met
 Total energy in the final basis set =     -263.9283871747

             Standard Nuclear Orientation (Angstroms)
    I     Atom           X                Y                Z
 ----------------------------------------------------------------
    1      C      -0.9042320565     1.8235343475    -0.1754217250
    2      O      -0.7770808828     1.5778680135     1.0581664037
    3      O      -0.9038101243     3.0197518723    -0.5840282338
    4      O      -1.0312928363     0.8736730666    -0.9992925448
 ----------------------------------------------------------------

   14    -263.9352587103      7.78e-08  Convergence criterion met
 Total energy in the final basis set =     -263.9283939871
 Final energy is   -263.928393987148
 **  OPTIMIZATION CONVERGED  **

                    Orbital Energies (a.u.)
 --------------------------------------------------------------

 Alpha MOs
 -- Occupied --
-19.3421 -19.3420 -19.3416 -10.4902  -1.2489  -1.1220  -1.1220  -0.6561
 -0.5971  -0.5971  -0.5849  -0.4527  -0.4524  -0.4167  -0.4165  -0.3927

 Beta MOs
 -- Occupied --
-19.3318 -19.3317 -19.3314 -10.4911  -1.2339  -1.0998  -1.0997  -0.6415
 -0.5787  -0.5720  -0.5718  -0.4029  -0.4028  -0.3868  -0.3868

          Ground-State Mulliken Net Atomic Charges

     Atom                 Charge (a.u.)    Spin (a.u.)
  --------------------------------------------------------
      1 C                     0.524300      -0.106030
      2 O                    -0.507302       0.370265
      3 O                    -0.507480       0.369521
      4 O                    -0.509518       0.366243
  --------------------------------------------------------
  Sum of atomic charges =    -1.000000

                    Cartesian Multipole Moments
 -----------------------------------------------------------------
    Charge (ESU x 10^10)
                -4.8032
    Dipole Moment (Debye)
         X       4.3432      Y      -8.7532      Z       0.8479
       Tot       9.8082
    Quadrupole Moments (Debye-Ang)
        XX     -27.1154     XY       7.6328     YY     -46.5204
        XZ      -1.5844     YZ       1.5669     ZZ     -30.6334

 Total job time:  43.14s(wall), 329.41s(cpu)
        *  Thank you very much for using Q-Chem.  Have a nice day.  *
