 Q-Chem 5.4, Q-Chem, Inc., Pleasanton, CA (2021)
 Q-Chem 5.4.1 for Intel X86 EM64T Linux

User input:
--------------------------------------------------------------
$molecule
0 2
C    1.5662520    0.8598144   -1.6713106
C    0.5281843   -0.0999606   -2.4924856
O    1.1056629   -1.3649253   -2.5775764
O    0.4010119    0.4041601   -3.7757623
O    2.8203201    0.8474601   -2.3043673
H    1.0133814   -1.8109574   -1.7256154
H   -0.5341476    0.4332163   -4.0070180
H    1.6050243    0.3461009   -0.6907037
H   -0.4038029   -0.0970360   -1.9324527
O    1.0323368    2.0390039   -1.5911066
H    3.1273872   -0.0675986   -2.3488875
$end

$rem
BASIS = 6-311++G(2df,2p)
GUI = 2
JOB_TYPE = Frequency
METHOD = wB97M-V
SOLVENT_METHOD = SMD
SCF_ALGORITHM = DIIS_GDM
MAX_SCF_CYCLES = 400
SCF_CONVERGENCE = 7
THRESH = 12
$end

--------------------------------------------------------------

   22    -380.0857839940      5.42e-08  Convergence criterion met
 Total energy in the final basis set =     -380.0803347733
   21    -380.0857861943      4.60e-08  Convergence criterion met
 Total energy in the final basis set =     -380.0803338246
   21    -380.0857804343      5.70e-08  Convergence criterion met
 Total energy in the final basis set =     -380.0803339935
   21    -380.0857911421      4.49e-08  Convergence criterion met
 Total energy in the final basis set =     -380.0803346568
   21    -380.0857755761      4.84e-08  Convergence criterion met
 Total energy in the final basis set =     -380.0803336714
   21    -380.0857831304      4.54e-08  Convergence criterion met
 Total energy in the final basis set =     -380.0803345963
   21    -380.0857835929      4.69e-08  Convergence criterion met
 Total energy in the final basis set =     -380.0803335713
   21    -380.0857845749      4.76e-08  Convergence criterion met
 Frequency:      -336.12                  97.76                 149.18
 Force Cnst:      0.1245                 0.0229                 0.0244
 Red. Mass:       1.8710                 4.0631                 1.8620
 IR Intens:      186.864                 23.350                114.874
 Frequency:       261.13                 275.32                 321.30
 Force Cnst:      0.2749                 0.0911                 0.1199
 Red. Mass:       6.8433                 2.0399                 1.9721
 IR Intens:      174.362                545.918                551.965
 Frequency:       344.68                 398.63                 557.82
 Force Cnst:      0.0800                 0.6780                 0.9579
 Red. Mass:       1.1427                 7.2417                 5.2250
 IR Intens:      212.466                  7.240                 42.607
 Frequency:       594.70                 699.98                 908.83
 Force Cnst:      1.3676                 1.5488                 1.0107
 Red. Mass:       6.5631                 5.3651                 2.0769
 IR Intens:        5.561                137.890                244.481
 Frequency:      1079.28                1118.49                1154.72
 Force Cnst:      1.8166                 2.4743                 1.0477
 Red. Mass:       2.6470                 3.3569                 1.3337
 IR Intens:      213.654                374.884                145.424
 Frequency:      1218.91                1255.34                1279.49
 Force Cnst:      0.9833                 1.1822                 2.1137
 Red. Mass:       1.1233                 1.2732                 2.1914
 IR Intens:      116.166                 21.100                379.294
 Frequency:      1287.42                1342.27                1408.23
 Force Cnst:      1.5334                 1.4352                 2.3049
 Red. Mass:       1.5703                 1.3520                 1.9726
 IR Intens:      132.244                141.557                 67.527
 Frequency:      1437.80                2889.20                3130.27
 Force Cnst:      1.7170                 5.2687                 6.2904
 Red. Mass:       1.4097                 1.0713                 1.0896
 IR Intens:       19.442                 25.829                 19.294
 Frequency:      3795.86                3802.31                3827.66
 Force Cnst:      9.0485                 9.0810                 9.2069
 Red. Mass:       1.0659                 1.0661                 1.0666
 IR Intens:      219.368                186.326                218.308

 STANDARD THERMODYNAMIC QUANTITIES AT   298.15 K  AND     1.00 ATM

   This Molecule has  1 Imaginary Frequencies
   Zero point vibrational energy:       49.515 kcal/mol

   Atom    1 Element C  Has Mass   12.00000
   Atom    2 Element C  Has Mass   12.00000
   Atom    3 Element O  Has Mass   15.99491
   Atom    4 Element O  Has Mass   15.99491
   Atom    5 Element O  Has Mass   15.99491
   Atom    6 Element H  Has Mass    1.00783
   Atom    7 Element H  Has Mass    1.00783
   Atom    8 Element H  Has Mass    1.00783
   Atom    9 Element H  Has Mass    1.00783
   Atom   10 Element O  Has Mass   15.99491
   Atom   11 Element H  Has Mass    1.00783
   Molecular Mass:    93.018790 amu
   Principal axes and moments of inertia in amu*Bohr^2:
                             1           2           3
    Eigenvalues --      355.63375   581.25513   707.14492
          X               0.38938     0.79212    -0.47003
          Y               0.80981    -0.53755    -0.23504
          Z               0.43885     0.28912     0.85078
   Rotational Symmetry Number is   1
   The Molecule is an Asymmetric Top
   Translational Enthalpy:        0.889 kcal/mol
   Rotational Enthalpy:           0.889 kcal/mol
   Vibrational Enthalpy:         52.049 kcal/mol
   gas constant (RT):             0.592 kcal/mol
   Translational Entropy:        39.502  cal/mol.K
   Rotational Entropy:           26.483  cal/mol.K
   Vibrational Entropy:          14.648  cal/mol.K

   Total Enthalpy:               54.419 kcal/mol
   Total Entropy:                80.633  cal/mol.K
 Total job time:  4142.76s(wall), 60936.55s(cpu)
        *  Thank you very much for using Q-Chem.  Have a nice day.  *
 Q-Chem 5.4, Q-Chem, Inc., Pleasanton, CA (2021)
 Q-Chem 5.4.1 for Intel X86 EM64T Linux

User input:
--------------------------------------------------------------

$molecule
read
$end

$rem
JOBTYPE            rpath
SCF_GUESS          read
RPATH_MAX_CYCLES   30
BASIS = 6-311++G(2df,2p)
METHOD = wB97M-V
SOLVENT_METHOD = SMD
SCF_ALGORITHM = DIIS_GDM
SCF_CONVERGENCE = 7
THRESH = 12
$end
--------------------------------------------------------------

 Total energy in the final basis set =     -380.0867459559
   17    -380.0954461580      4.90e-08  Convergence criterion met
 Total energy in the final basis set =     -380.0874087194
   17    -380.0923313065      3.53e-08  Convergence criterion met
 Total energy in the final basis set =     -380.0842828749
   16    -380.0955207912      9.00e-08  Convergence criterion met
 Total energy in the final basis set =     -380.0874766739
   16    -380.0907284534      7.67e-08  Convergence criterion met
 Total energy in the final basis set =     -380.0826195994
   16    -380.0955711123      9.36e-08  Convergence criterion met
 Total energy in the final basis set =     -380.0875160931
   16    -380.0955612288      9.82e-08  Convergence criterion met
 Total energy in the final basis set =     -380.0875145474
   17    -380.0955764734      4.27e-08  Convergence criterion met
 Total energy in the final basis set =     -380.0875253199

                    Orbital Energies (a.u.)
 --------------------------------------------------------------

 Alpha MOs
 -- Occupied --
-19.3808 -19.3796 -19.3645 -19.3148 -10.4691 -10.4674  -1.2470  -1.2142
 -1.1790  -1.1366  -0.8065  -0.7437  -0.6995  -0.6679  -0.6430  -0.6026
 -0.5661  -0.5497  -0.5159  -0.4999  -0.4768  -0.4640  -0.4351  -0.3917
 -0.2730

 Beta MOs
 -- Occupied --
-19.3776 -19.3771 -19.3633 -19.3099 -10.4669 -10.4601  -1.2394  -1.2100
 -1.1724  -1.1297  -0.7916  -0.7358  -0.6913  -0.6618  -0.6351  -0.5816
 -0.5594  -0.5444  -0.5025  -0.4932  -0.4670  -0.4454  -0.4131  -0.3853

          Ground-State Mulliken Net Atomic Charges

     Atom                 Charge (a.u.)    Spin (a.u.)
  --------------------------------------------------------
      1 C                     0.013994       0.093186
      2 C                    -0.048969       0.511998
      3 O                    -0.335893       0.085757
      4 O                    -0.350730       0.071279
      5 O                    -0.336535       0.037203
      6 H                     0.344335      -0.002005
      7 H                     0.362010      -0.000132
      8 H                     0.279975       0.022720
      9 H                     0.293686       0.007901
     10 O                    -0.548778       0.173539
     11 H                     0.326905      -0.001447
  --------------------------------------------------------
  Sum of atomic charges =     0.000000

                    Cartesian Multipole Moments
 -----------------------------------------------------------------
    Charge (ESU x 10^10)
                -0.0000
    Dipole Moment (Debye)
         X      -2.5836      Y      -6.7594      Z       2.3282
       Tot       7.6017
    Quadrupole Moments (Debye-Ang)
        XX     -34.5721     XY     -11.9453     YY     -48.1144
        XZ      13.3876     YZ       7.0850     ZZ     -46.2763

             Standard Nuclear Orientation (Angstroms)
    I     Atom           X                Y                Z
 ----------------------------------------------------------------
    1      C       1.5662520000     0.8598144000    -1.6713106000
    2      C       0.5281843000    -0.0999606000    -2.4924856000
    3      O       1.1056629000    -1.3649253000    -2.5775764000
    4      O       0.4010119000     0.4041601000    -3.7757623000
    5      O       2.8203201000     0.8474601000    -2.3043673000
    6      H       1.0133814000    -1.8109574000    -1.7256154000
    7      H      -0.5341476000     0.4332163000    -4.0070180000
    8      H       1.6050243000     0.3461009000    -0.6907037000
    9      H      -0.4038029000    -0.0970360000    -1.9324527000
   10      O       1.0323368000     2.0390039000    -1.5911066000
   11      H       3.1273872000    -0.0675986000    -2.3488875000
 ----------------------------------------------------------------

 Total job time:  5478.35s(wall), 80240.64s(cpu)
        *  Thank you very much for using Q-Chem.  Have a nice day.  *
