 Q-Chem 5.4, Q-Chem, Inc., Pleasanton, CA (2021)
 Q-Chem 5.4.1 for Intel X86 EM64T Linux

User input:
--------------------------------------------------------------
$molecule
0 2
C    1.7915018    0.7787258   -1.6499056
C    0.5047291   -0.1586104   -2.3877816
O    0.9026162   -1.5070129   -2.3517700
O    0.3279893    0.3108408   -3.7013314
O    2.8446525    0.7002618   -2.5085847
H    0.1186379   -2.0574259   -2.4581527
H   -0.5554425    0.0622694   -3.9954950
H    1.9138586    0.3846879   -0.6942128
H   -0.4063340   -0.0138652   -1.8063719
O    1.2033134    2.0899974   -1.5983904
H    3.6160882    0.8994091   -1.9652902
$end

$rem
BASIS = 6-311++G(2df,2p)
GUI = 2
JOB_TYPE = Frequency
METHOD = wB97M-V
SCF_ALGORITHM = DIIS_GDM
MAX_SCF_CYCLES = 400
SCF_CONVERGENCE = 6
THRESH = 11
solvent_method = SMD
$end

--------------------------------------------------------------

   21    -380.0620553145      5.57e-07  Convergence criterion met
 Total energy in the final basis set =     -380.0574579634
   18    -380.0618936663      9.64e-07  Convergence criterion met
 Total energy in the final basis set =     -380.0572887019
   18    -380.0622156244      8.02e-07  Convergence criterion met
 Total energy in the final basis set =     -380.0576259262
   18    -380.0621146673      9.47e-07  Convergence criterion met
 Total energy in the final basis set =     -380.0575172316
   19    -380.0619953644      3.63e-07  Convergence criterion met
 Total energy in the final basis set =     -380.0573981010
   18    -380.0619301192      9.48e-07  Convergence criterion met
 Total energy in the final basis set =     -380.0573364898
   18    -380.0621781947      9.04e-07  Convergence criterion met
 Total energy in the final basis set =     -380.0575771451
   18    -380.0620898521      9.99e-07  Convergence criterion met
 Frequency:      -326.48                -228.28                 -78.64
 Force Cnst:      0.2182                 0.0361                 0.0041
 Red. Mass:       3.4743                 1.1753                 1.1168
 IR Intens:      232.967                164.458                327.859
 Frequency:        60.23                 214.92                 263.78
 Force Cnst:      0.0094                 0.0826                 0.1407
 Red. Mass:       4.4203                 3.0365                 3.4312
 IR Intens:       21.443                 29.043                 32.333
 Frequency:       306.79                 345.91                 518.75
 Force Cnst:      0.1118                 0.4459                 0.7286
 Red. Mass:       2.0168                 6.3252                 4.5956
 IR Intens:       74.262                  1.287                 71.514
 Frequency:       595.21                 683.42                 710.24
 Force Cnst:      1.8175                 1.4239                 0.8492
 Red. Mass:       8.7076                 5.1743                 2.8571
 IR Intens:       36.708                 82.972                 20.574
 Frequency:       895.60                1103.53                1139.10
 Force Cnst:      0.7109                 0.8253                 1.6591
 Red. Mass:       1.5043                 1.1502                 2.1702
 IR Intens:       78.944                158.753                193.503
 Frequency:      1189.94                1194.00                1219.16
 Force Cnst:      0.9207                 2.0058                 2.2801
 Red. Mass:       1.1036                 2.3880                 2.6036
 IR Intens:      250.500                182.384                133.807
 Frequency:      1271.98                1363.07                1382.85
 Force Cnst:      3.8545                 1.3968                 1.5766
 Red. Mass:       4.0435                 1.2760                 1.3993
 IR Intens:      381.584                 51.338                 55.432
 Frequency:      1426.46                3099.24                3579.25
 Force Cnst:      1.5468                 6.1647                 8.1883
 Red. Mass:       1.2902                 1.0893                 1.0848
 IR Intens:       45.301                 30.680                  6.131
 Frequency:      3817.33                3823.74                3825.40
 Force Cnst:      9.1470                 9.1886                 9.1962
 Red. Mass:       1.0654                 1.0667                 1.0666
 IR Intens:      210.230                108.420                262.553

 STANDARD THERMODYNAMIC QUANTITIES AT   298.15 K  AND     1.00 ATM

   This Molecule has  3 Imaginary Frequencies
   Zero point vibrational energy:       48.648 kcal/mol

   Atom    1 Element C  Has Mass   12.00000
   Atom    2 Element C  Has Mass   12.00000
   Atom    3 Element O  Has Mass   15.99491
   Atom    4 Element O  Has Mass   15.99491
   Atom    5 Element O  Has Mass   15.99491
   Atom    6 Element H  Has Mass    1.00783
   Atom    7 Element H  Has Mass    1.00783
   Atom    8 Element H  Has Mass    1.00783
   Atom    9 Element H  Has Mass    1.00783
   Atom   10 Element O  Has Mass   15.99491
   Atom   11 Element H  Has Mass    1.00783
   Molecular Mass:    93.018790 amu
   Principal axes and moments of inertia in amu*Bohr^2:
                             1           2           3
    Eigenvalues --      358.44783   652.57892   756.37265
          X               0.49323     0.76659    -0.41117
          Y               0.80206    -0.58375    -0.12621
          Z               0.33677     0.26754     0.90278
   Rotational Symmetry Number is   1
   The Molecule is an Asymmetric Top
   Translational Enthalpy:        0.889 kcal/mol
   Rotational Enthalpy:           0.889 kcal/mol
   Vibrational Enthalpy:         50.772 kcal/mol
   gas constant (RT):             0.592 kcal/mol
   Translational Entropy:        39.502  cal/mol.K
   Rotational Entropy:           26.672  cal/mol.K
   Vibrational Entropy:          12.811  cal/mol.K

   Total Enthalpy:               53.142 kcal/mol
   Total Entropy:                78.985  cal/mol.K
 Total job time:  3231.00s(wall), 47697.26s(cpu)
        *  Thank you very much for using Q-Chem.  Have a nice day.  *
 Q-Chem 5.4, Q-Chem, Inc., Pleasanton, CA (2021)
 Q-Chem 5.4.1 for Intel X86 EM64T Linux

User input:
--------------------------------------------------------------

$rem
JOBTYPE = ts
SCF_GUESS = read
GEOM_OPT_HESSIAN = read
MAX_SCF_CYCLES = 350
GEOM_OPT_DMAX = 60
GEOM_OPT_MAX_CYCLES = 250
METHOD = wB97M-v
BASIS = 6-311++G(2df,2p)
SCF_CONVERGENCE = 7
THRESH = 12
SCF_ALGORITHM = DIIS_GDM
solvent_method = SMD
$end

$molecule
read
$end
--------------------------------------------------------------

   20    -380.0858888757      8.70e-08  Convergence criterion met
 Total energy in the final basis set =     -380.0802603623
   21    -380.0858773783      5.02e-08  Convergence criterion met
 Total energy in the final basis set =     -380.0802872354
   21    -380.0858541375      5.08e-08  Convergence criterion met
 Total energy in the final basis set =     -380.0803066261
   21    -380.0858379364      5.05e-08  Convergence criterion met
 Total energy in the final basis set =     -380.0803227387
   21    -380.0858196126      5.37e-08  Convergence criterion met
 Total energy in the final basis set =     -380.0803303971
   21    -380.0858076948      5.22e-08  Convergence criterion met
 Total energy in the final basis set =     -380.0803337924

             Standard Nuclear Orientation (Angstroms)
    I     Atom           X                Y                Z
 ----------------------------------------------------------------
    1      C       1.5662519825     0.8598143635    -1.6713106419
    2      C       0.5281843322    -0.0999606250    -2.4924856126
    3      O       1.1056629188    -1.3649253021    -2.5775764273
    4      O       0.4010118601     0.4041600638    -3.7757623497
    5      O       2.8203201158     0.8474601196    -2.3043672781
    6      H       1.0133814358    -1.8109574045    -1.7256154262
    7      H      -0.5341476189     0.4332163298    -4.0070180106
    8      H       1.6050243229     0.3461009284    -0.6907037390
    9      H      -0.4038028699    -0.0970359742    -1.9324526909
   10      O       1.0323367984     2.0390039492    -1.5911066181
   11      H       3.1273872223    -0.0675986486    -2.3488875057
 ----------------------------------------------------------------

   21    -380.0857839931      5.75e-08  Convergence criterion met
 Total energy in the final basis set =     -380.0803347731
 Final energy is   -380.080334773066
 **  OPTIMIZATION CONVERGED  **

                    Orbital Energies (a.u.)
 --------------------------------------------------------------

 Alpha MOs
 -- Occupied --
-19.3707 -19.3628 -19.3592 -19.3505 -10.4791 -10.4561  -1.2341  -1.2032
 -1.1567  -1.1398  -0.8368  -0.7429  -0.6921  -0.6556  -0.6504  -0.6044
 -0.5812  -0.5361  -0.4995  -0.4838  -0.4645  -0.4559  -0.4322  -0.4168
 -0.3637

 Beta MOs
 -- Occupied --
-19.3615 -19.3591 -19.3534 -19.3500 -10.4749 -10.4564  -1.2278  -1.1917
 -1.1541  -1.1192  -0.8231  -0.7318  -0.6891  -0.6460  -0.6441  -0.5867
 -0.5623  -0.5317  -0.4940  -0.4750  -0.4515  -0.4289  -0.4057  -0.3884

          Ground-State Mulliken Net Atomic Charges

     Atom                 Charge (a.u.)    Spin (a.u.)
  --------------------------------------------------------
      1 C                    -0.047989       0.012048
      2 C                     0.027010       0.155611
      3 O                    -0.397694       0.044194
      4 O                    -0.418479       0.008869
      5 O                    -0.411580       0.025832
      6 H                     0.335738      -0.000294
      7 H                     0.357883       0.003516
      8 H                     0.293319       0.090156
      9 H                     0.267424      -0.001119
     10 O                    -0.333062       0.663650
     11 H                     0.327430      -0.002462
  --------------------------------------------------------
  Sum of atomic charges =     0.000000

                    Cartesian Multipole Moments
 -----------------------------------------------------------------
    Charge (ESU x 10^10)
                -0.0000
    Dipole Moment (Debye)
         X      -3.1971      Y      -5.7481      Z       3.0483
       Tot       7.2494
    Quadrupole Moments (Debye-Ang)
        XX     -37.3981     XY     -10.0785     YY     -45.1386
        XZ      15.0968     YZ       8.0793     ZZ     -48.8465

 Total job time:  4277.19s(wall), 62874.81s(cpu)
        *  Thank you very much for using Q-Chem.  Have a nice day.  *
