 Q-Chem 5.4, Q-Chem, Inc., Pleasanton, CA (2021)
 Q-Chem 5.4.1 for Intel X86 EM64T Linux

User input:
--------------------------------------------------------------
$molecule
-1 2
O        -0.5898693698    1.4364167686   -0.2011324283
C        -0.0505459724    0.4558973035    0.6364534286
O        -0.9992020981   -0.4709441896    1.0550590018
C         1.1382211719   -0.2198854210   -0.0797845773
O         2.1150602176    0.5155082449   -0.3422678855
O         1.0091565412   -1.4439638257   -0.3063138284
H        -1.2923185257    1.8935755434    0.2782478755
H        -0.6832252495   -1.3229325128    0.7021992984
H         0.3900654810    0.9778650496    1.5657085859
O         1.5169367837    1.7843143470    2.2297602170
H         2.0821964203    1.6320557921    1.4474164122
$end

$rem
BASIS = def2-TZVPD
JOB_TYPE = SP
METHOD = wB97M-V
SCF_ALGORITHM = DIIS_GDM
MAX_SCF_CYCLES = 400
SCF_CONVERGENCE = 7
THRESH = 12
Solvent_method = SMD
$end
--------------------------------------------------------------

             Standard Nuclear Orientation (Angstroms)
    I     Atom           X                Y                Z
 ----------------------------------------------------------------
    1      O      -0.5898693698     1.4364167686    -0.2011324283
    2      C      -0.0505459724     0.4558973035     0.6364534286
    3      O      -0.9992020981    -0.4709441896     1.0550590018
    4      C       1.1382211719    -0.2198854210    -0.0797845773
    5      O       2.1150602176     0.5155082449    -0.3422678855
    6      O       1.0091565412    -1.4439638257    -0.3063138284
    7      H      -1.2923185257     1.8935755434     0.2782478755
    8      H      -0.6832252495    -1.3229325128     0.7021992984
    9      H       0.3900654810     0.9778650496     1.5657085859
   10      O       1.5169367837     1.7843143470     2.2297602170
   11      H       2.0821964203     1.6320557921     1.4474164122
 ----------------------------------------------------------------

   23    -454.9036430582      6.97e-08  Convergence criterion met
 Total energy in the final basis set =     -454.8970627025

                    Orbital Energies (a.u.)
 --------------------------------------------------------------

 Alpha MOs
 -- Occupied --
-19.3662 -19.3526 -19.3464 -19.2987 -19.2949 -10.4551 -10.4498  -1.2160
 -1.1730  -1.1436  -1.1172  -1.0911  -0.8173  -0.6904  -0.6501  -0.6221
 -0.5937  -0.5685  -0.5402  -0.5239  -0.5190  -0.4975  -0.4876  -0.4415
 -0.4211  -0.3942  -0.3812  -0.3710  -0.3563

 Beta MOs
 -- Occupied --
-19.3516 -19.3460 -19.3452 -19.2985 -19.2949 -10.4509 -10.4498  -1.2133
 -1.1721  -1.1410  -1.0922  -1.0642  -0.8097  -0.6839  -0.6449  -0.6093
 -0.5878  -0.5495  -0.5378  -0.5195  -0.5155  -0.4893  -0.4246  -0.4140
 -0.4099  -0.3801  -0.3722  -0.3649

          Ground-State Mulliken Net Atomic Charges

     Atom                 Charge (a.u.)    Spin (a.u.)
  --------------------------------------------------------
      1 O                    -0.565076       0.032499
      2 C                     0.407328       0.139846
      3 O                    -0.627705       0.028672
      4 C                     0.720645       0.003633
      5 O                    -0.836855       0.003051
      6 O                    -0.847229       0.006967
      7 H                     0.382606      -0.001250
      8 H                     0.382282       0.004214
      9 H                     0.213385       0.039918
     10 O                    -0.631860       0.770064
     11 H                     0.402477      -0.027614
  --------------------------------------------------------
  Sum of atomic charges =    -1.000000

                    Cartesian Multipole Moments
 -----------------------------------------------------------------
    Charge (ESU x 10^10)
                -4.8032
    Dipole Moment (Debye)
         X      -7.4683      Y       0.4703      Z      -0.1120
       Tot       7.4839
    Quadrupole Moments (Debye-Ang)
        XX     -56.7539     XY      -2.7785     YY     -50.7789
        XZ       1.0466     YZ      -3.9997     ZZ     -54.4047

 Total job time:  424.42s(wall), 1532.06s(cpu)
        *  Thank you very much for using Q-Chem.  Have a nice day.  *
