 Q-Chem 5.4, Q-Chem, Inc., Pleasanton, CA (2021)
 Q-Chem 5.4.1 for Intel X86 EM64T Linux

User input:
--------------------------------------------------------------
$molecule
-1 2
O        -0.5898693698    1.4364167686   -0.2011324283
C        -0.0505459724    0.4558973035    0.6364534286
O        -0.9992020981   -0.4709441896    1.0550590018
C         1.1382211719   -0.2198854210   -0.0797845773
O         2.1150602176    0.5155082449   -0.3422678855
O         1.0091565412   -1.4439638257   -0.3063138284
H        -1.2923185257    1.8935755434    0.2782478755
H        -0.6832252495   -1.3229325128    0.7021992984
H         0.3900654810    0.9778650496    1.5657085859
O         1.5169367837    1.7843143470    2.2297602170
H         2.0821964203    1.6320557921    1.4474164122
$end

$rem
BASIS = 6-31G(d)
JOB_TYPE = SP
METHOD = wB97M-V
SCF_ALGORITHM = DIIS_GDM
MAX_SCF_CYCLES = 400
SCF_CONVERGENCE = 7
THRESH = 12
Solvent_method = SMD
$end
--------------------------------------------------------------

             Standard Nuclear Orientation (Angstroms)
    I     Atom           X                Y                Z
 ----------------------------------------------------------------
    1      O      -0.5898693698     1.4364167686    -0.2011324283
    2      C      -0.0505459724     0.4558973035     0.6364534286
    3      O      -0.9992020981    -0.4709441896     1.0550590018
    4      C       1.1382211719    -0.2198854210    -0.0797845773
    5      O       2.1150602176     0.5155082449    -0.3422678855
    6      O       1.0091565412    -1.4439638257    -0.3063138284
    7      H      -1.2923185257     1.8935755434     0.2782478755
    8      H      -0.6832252495    -1.3229325128     0.7021992984
    9      H       0.3900654810     0.9778650496     1.5657085859
   10      O       1.5169367837     1.7843143470     2.2297602170
   11      H       2.0821964203     1.6320557921     1.4474164122
 ----------------------------------------------------------------

   23    -454.6640846925      3.78e-08  Convergence criterion met
 Total energy in the final basis set =     -454.6575043367

                    Orbital Energies (a.u.)
 --------------------------------------------------------------

 Alpha MOs
 -- Occupied --
-19.3706 -19.3591 -19.3520 -19.3023 -19.2977 -10.4495 -10.4459  -1.2000
 -1.1535  -1.1283  -1.0995  -1.0700  -0.8017  -0.6747  -0.6343  -0.6044
 -0.5737  -0.5501  -0.5177  -0.5057  -0.4986  -0.4777  -0.4670  -0.4183
 -0.4012  -0.3716  -0.3570  -0.3472  -0.3342

 Beta MOs
 -- Occupied --
-19.3581 -19.3509 -19.3508 -19.3021 -19.2977 -10.4459 -10.4454  -1.1971
 -1.1527  -1.1256  -1.0713  -1.0469  -0.7942  -0.6682  -0.6290  -0.5911
 -0.5682  -0.5316  -0.5154  -0.5007  -0.4957  -0.4697  -0.4031  -0.3931
 -0.3884  -0.3560  -0.3491  -0.3413

          Ground-State Mulliken Net Atomic Charges

     Atom                 Charge (a.u.)    Spin (a.u.)
  --------------------------------------------------------
      1 O                    -0.653472       0.032638
      2 C                     0.226271       0.206581
      3 O                    -0.685094       0.032504
      4 C                     0.526747      -0.001094
      5 O                    -0.658813       0.002147
      6 O                    -0.658120       0.006471
      7 H                     0.455971      -0.000195
      8 H                     0.436352       0.004967
      9 H                     0.200904      -0.054000
     10 O                    -0.624783       0.789428
     11 H                     0.434038      -0.019448
  --------------------------------------------------------
  Sum of atomic charges =    -1.000000

                    Cartesian Multipole Moments
 -----------------------------------------------------------------
    Charge (ESU x 10^10)
                -4.8032
    Dipole Moment (Debye)
         X      -7.0386      Y       0.2264      Z      -0.5563
       Tot       7.0642
    Quadrupole Moments (Debye-Ang)
        XX     -53.2985     XY      -2.8457     YY     -47.9460
        XZ       0.8672     YZ      -4.1507     ZZ     -52.2414

 Total job time:  45.29s(wall), 175.93s(cpu)
        *  Thank you very much for using Q-Chem.  Have a nice day.  *
