 Q-Chem 5.4, Q-Chem, Inc., Pleasanton, CA (2021)
 Q-Chem 5.4.1 for Intel X86 EM64T Linux

User input:
--------------------------------------------------------------
$molecule
0 2
C         0.5259361465    0.2043921395    0.4740676009
O         1.2874533448   -0.5711169147    0.9869908096
H        -2.5875831013    0.7760436896   -0.2342908893
C        -0.9933530291   -0.0778802264    0.4538855820
O        -1.1924198531   -1.3245821325   -0.0584423260
O        -1.6382660789    0.9534424243   -0.1592693111
O         0.9252740252    1.3236119123   -0.1025326688
H         0.1686586019    1.8175050908   -0.4603742573
O        -1.4339563021   -0.1633635542    1.8680049276
O        -1.1076507085    0.9154251556    2.5200574009
H        -2.1404694451   -1.4927940843   -0.1674083686
$end

$rem
BASIS = def2-TZVPD
JOB_TYPE = SP
METHOD = wB97M-V
SCF_ALGORITHM = DIIS_GDM
MAX_SCF_CYCLES = 400
SCF_CONVERGENCE = 7
THRESH = 12
Solvent_method = SMD
$end
--------------------------------------------------------------

             Standard Nuclear Orientation (Angstroms)
    I     Atom           X                Y                Z
 ----------------------------------------------------------------
    1      C       0.5259361465     0.2043921395     0.4740676009
    2      O       1.2874533448    -0.5711169147     0.9869908096
    3      H      -2.5875831013     0.7760436896    -0.2342908893
    4      C      -0.9933530291    -0.0778802264     0.4538855820
    5      O      -1.1924198531    -1.3245821325    -0.0584423260
    6      O      -1.6382660789     0.9534424243    -0.1592693111
    7      O       0.9252740252     1.3236119123    -0.1025326688
    8      H       0.1686586019     1.8175050908    -0.4603742573
    9      O      -1.4339563021    -0.1633635542     1.8680049276
   10      O      -1.1076507085     0.9154251556     2.5200574009
   11      H      -2.1404694451    -1.4927940843    -0.1674083686
 ----------------------------------------------------------------

   21    -529.3517823652      9.40e-08  Convergence criterion met
 Total energy in the final basis set =     -529.3450731585

                    Orbital Energies (a.u.)
 --------------------------------------------------------------

 Alpha MOs
 -- Occupied --
-19.4708 -19.4303 -19.3990 -19.3831 -19.3795 -19.3480 -10.5439 -10.5092
 -1.3622  -1.2714  -1.2424  -1.1907  -1.1720  -1.0095  -0.8590  -0.7538
 -0.7165  -0.7085  -0.6880  -0.6238  -0.6143  -0.5976  -0.5752  -0.5721
 -0.5311  -0.5062  -0.4943  -0.4530  -0.4489  -0.4267  -0.4119  -0.4034

 Beta MOs
 -- Occupied --
-19.4612 -19.4108 -19.3990 -19.3829 -19.3795 -19.3481 -10.5443 -10.5091
 -1.3392  -1.2690  -1.2402  -1.1905  -1.1718  -0.9749  -0.8539  -0.7532
 -0.7144  -0.6955  -0.6823  -0.6006  -0.5969  -0.5816  -0.5720  -0.5493
 -0.5285  -0.4960  -0.4872  -0.4511  -0.4478  -0.4202  -0.3906

          Ground-State Mulliken Net Atomic Charges

     Atom                 Charge (a.u.)    Spin (a.u.)
  --------------------------------------------------------
      1 C                     0.251001       0.014368
      2 O                    -0.639757      -0.000584
      3 H                     0.379602      -0.002210
      4 C                     1.160244      -0.010039
      5 O                    -0.567934      -0.000680
      6 O                    -0.609104       0.004667
      7 O                    -0.477640       0.001825
      8 H                     0.432635      -0.000181
      9 O                     0.002582       0.275484
     10 O                    -0.329591       0.715730
     11 H                     0.397963       0.001620
  --------------------------------------------------------
  Sum of atomic charges =     0.000000

                    Cartesian Multipole Moments
 -----------------------------------------------------------------
    Charge (ESU x 10^10)
                 0.0000
    Dipole Moment (Debye)
         X      -7.3750      Y       1.4125      Z      -4.5946
       Tot       8.8032
    Quadrupole Moments (Debye-Ang)
        XX     -34.5167     XY       3.2257     YY     -44.6959
        XZ       1.9979     YZ      -1.2774     ZZ     -53.8261

 Total job time:  440.02s(wall), 1745.31s(cpu)
        *  Thank you very much for using Q-Chem.  Have a nice day.  *
