 Q-Chem 5.4, Q-Chem, Inc., Pleasanton, CA (2021)
 Q-Chem 5.4.1 for Intel X86 EM64T Linux

User input:
--------------------------------------------------------------
$molecule
0 2
O         0.7139837603   -0.0221978848    0.0000000000
O        -0.5886126674    0.1177581209    0.0000000000
H        -0.9637405214   -0.7836068958    0.0000000000
$end

$rem
BASIS = def2-QZVP
JOB_TYPE = SP
METHOD = wB97M-V
SCF_ALGORITHM = DIIS_GDM
MAX_SCF_CYCLES = 400
SCF_CONVERGENCE = 7
THRESH = 12
Solvent_method = SMD
$end
--------------------------------------------------------------

             Standard Nuclear Orientation (Angstroms)
    I     Atom           X                Y                Z
 ----------------------------------------------------------------
    1      O       0.7139837603    -0.0221978848     0.0000000000
    2      O      -0.5886126674     0.1177581209     0.0000000000
    3      H      -0.9637405214    -0.7836068958     0.0000000000
 ----------------------------------------------------------------

   15    -150.9480682129      6.29e-08  Convergence criterion met
 Total energy in the final basis set =     -150.9469601512

                    Orbital Energies (a.u.)
 --------------------------------------------------------------

 Alpha MOs
 -- Occupied --
-19.4515 -19.4161  -1.3350  -0.9940  -0.6773  -0.6106  -0.5982  -0.4122
 -0.4055

 Beta MOs
 -- Occupied --
-19.4420 -19.3966  -1.3079  -0.9533  -0.6603  -0.5795  -0.5269  -0.3902

          Ground-State Mulliken Net Atomic Charges

     Atom                 Charge (a.u.)    Spin (a.u.)
  --------------------------------------------------------
      1 O                    -0.200356       0.710484
      2 O                    -0.138906       0.301746
      3 H                     0.339261      -0.012231
  --------------------------------------------------------
  Sum of atomic charges =     0.000000

                    Cartesian Multipole Moments
 -----------------------------------------------------------------
    Charge (ESU x 10^10)
                 0.0000
    Dipole Moment (Debye)
         X      -2.2444      Y      -1.9287      Z       0.0000
       Tot       2.9593
    Quadrupole Moments (Debye-Ang)
        XX     -10.6325     XY       2.0242     YY     -10.3424
        XZ      -0.0000     YZ       0.0000     ZZ     -11.1262

 Total job time:  31.50s(wall), 122.74s(cpu)
        *  Thank you very much for using Q-Chem.  Have a nice day.  *
