 Q-Chem 5.4, Q-Chem, Inc., Pleasanton, CA (2021)
 Q-Chem 5.4.1 for Intel X86 EM64T Linux

User input:
--------------------------------------------------------------
$molecule
0 2
C         0.5695364666    0.0119301795    0.6700025330
O         1.4789047047   -0.2444354264    1.4529369886
H        -1.5874791836   -0.0042416406   -0.8607253565
C        -0.5883875990   -0.8391455004    0.5767346309
O        -0.5918967654   -1.9098741433    1.3586140692
O        -1.6065446707   -0.7618225066   -0.2626693904
O         0.6742482200    1.1189624247   -0.0988121464
H        -0.1018849591    1.3272414999   -0.6326109051
O        -1.5183944077    0.8592388770    2.0550452789
O        -2.5615200239    1.1545408207    1.5113733859
H        -1.4004993818   -2.4225410845    1.2079938120
$end

$rem
BASIS = def2-TZVPPD
JOB_TYPE = SP
METHOD = wB97M-V
SCF_ALGORITHM = DIIS_GDM
MAX_SCF_CYCLES = 400
SCF_CONVERGENCE = 7
THRESH = 12
Solvent_method = SMD
$end
--------------------------------------------------------------

             Standard Nuclear Orientation (Angstroms)
    I     Atom           X                Y                Z
 ----------------------------------------------------------------
    1      C       0.5695364666     0.0119301795     0.6700025330
    2      O       1.4789047047    -0.2444354264     1.4529369886
    3      H      -1.5874791836    -0.0042416406    -0.8607253565
    4      C      -0.5883875990    -0.8391455004     0.5767346309
    5      O      -0.5918967654    -1.9098741433     1.3586140692
    6      O      -1.6065446707    -0.7618225066    -0.2626693904
    7      O       0.6742482200     1.1189624247    -0.0988121464
    8      H      -0.1018849591     1.3272414999    -0.6326109051
    9      O      -1.5183944077     0.8592388770     2.0550452789
   10      O      -2.5615200239     1.1545408207     1.5113733859
   11      H      -1.4004993818    -2.4225410845     1.2079938120
 ----------------------------------------------------------------

   29    -529.3162129285      3.74e-08  Convergence criterion met
 Total energy in the final basis set =     -529.3090463851

                    Orbital Energies (a.u.)
 --------------------------------------------------------------

 Alpha MOs
 -- Occupied --
-19.4738 -19.4630 -19.4028 -19.3921 -19.3819 -19.3209 -10.4932 -10.4896
 -1.4101  -1.2719  -1.2302  -1.1945  -1.1455  -0.9476  -0.8521  -0.7541
 -0.7407  -0.6816  -0.6638  -0.6563  -0.6469  -0.5827  -0.5794  -0.5491
 -0.5337  -0.5322  -0.5062  -0.4652  -0.4255  -0.4053  -0.3969  -0.3905

 Beta MOs
 -- Occupied --
-19.4457 -19.4356 -19.4051 -19.3948 -19.3827 -19.3250 -10.5001 -10.4906
 -1.3585  -1.2784  -1.2335  -1.2002  -1.1512  -0.8789  -0.8581  -0.7590
 -0.7432  -0.6850  -0.6371  -0.5982  -0.5878  -0.5629  -0.5524  -0.5521
 -0.5377  -0.5358  -0.5095  -0.4834  -0.4441  -0.4097  -0.2708

          Ground-State Mulliken Net Atomic Charges

     Atom                 Charge (a.u.)    Spin (a.u.)
  --------------------------------------------------------
      1 C                     0.821567      -0.081869
      2 O                    -0.757215      -0.150304
      3 H                     0.232357      -0.000698
      4 C                     0.582852      -0.408152
      5 O                    -0.369731      -0.081691
      6 O                    -0.394881      -0.071017
      7 O                    -0.417055      -0.021195
      8 H                     0.211371       0.000162
      9 O                    -0.033091       0.889575
     10 O                    -0.123468       0.921212
     11 H                     0.247295       0.003978
  --------------------------------------------------------
  Sum of atomic charges =    -0.000000

                    Cartesian Multipole Moments
 -----------------------------------------------------------------
    Charge (ESU x 10^10)
                -0.0000
    Dipole Moment (Debye)
         X      -6.4913      Y      -0.6347      Z      -5.7463
       Tot       8.6925
    Quadrupole Moments (Debye-Ang)
        XX     -50.8533     XY       3.5811     YY     -40.3310
        XZ      -3.7695     YZ      -3.2605     ZZ     -50.2023

 Total job time:  676.68s(wall), 2684.98s(cpu)
        *  Thank you very much for using Q-Chem.  Have a nice day.  *
