 Q-Chem 5.4, Q-Chem, Inc., Pleasanton, CA (2021)
 Q-Chem 5.4.1 for Intel X86 EM64T Linux

User input:
--------------------------------------------------------------
$molecule
-1 1
C         0.5976906250    0.1829920034    0.0003836046
O        -0.2116925879    1.0809780819    0.0002834213
C         2.1394850490    0.4145355110    0.0005056157
O         2.4827968949    1.6120878250    0.0005925006
O         2.8556453186   -0.6050976549    0.0004820653
O         0.2596265223   -1.1065494245    0.0003349708
H        -0.7087105219   -1.1729699418    0.0002458218
$end

$rem
BASIS = 6-311++G(2df,2p)
GUI = 2
JOB_TYPE = Frequency
METHOD = wB97M-V
SOLVENT_METHOD = SMD
SCF_ALGORITHM = DIIS_GDM
MAX_SCF_CYCLES = 400
SCF_CONVERGENCE = 7
THRESH = 12
UNRESTRICTED = 1
SYMMETRY_IGNORE = 1
$end
--------------------------------------------------------------

   15    -377.9493799969      1.02e-08  Convergence criterion met
 Total energy in the final basis set =     -377.9403554505
   15    -377.9493730639      4.62e-08  Convergence criterion met
 Total energy in the final basis set =     -377.9403541516
   15    -377.9493842226      4.79e-08  Convergence criterion met
 Total energy in the final basis set =     -377.9403540614
   15    -377.9493739411      4.73e-08  Convergence criterion met
 Total energy in the final basis set =     -377.9403539741
   15    -377.9493833763      4.54e-08  Convergence criterion met
 Total energy in the final basis set =     -377.9403543338
   15    -377.9493796637      4.51e-08  Convergence criterion met
 Total energy in the final basis set =     -377.9403551203
   15    -377.9493796859      5.79e-08  Convergence criterion met
 Total energy in the final basis set =     -377.9403551413
   15    -377.9493809098      4.35e-08  Convergence criterion met
 Total energy in the final basis set =     -377.9403553875
   15    -377.9493799233      4.27e-08  Convergence criterion met
 Total energy in the final basis set =     -377.9403553798
   15    -377.9493784795      4.55e-08  Convergence criterion met
 Total energy in the final basis set =     -377.9403545432
   15    -377.9493797325      4.63e-08  Convergence criterion met
 Total energy in the final basis set =     -377.9403545761
   15    -377.9493793627      4.71e-08  Convergence criterion met
 Total energy in the final basis set =     -377.9403553616
   15    -377.9493804395      4.68e-08  Convergence criterion met
 Total energy in the final basis set =     -377.9403553476
   15    -377.9493799748      4.68e-08  Convergence criterion met
 Total energy in the final basis set =     -377.9403554283
   15    -377.9493799758      4.68e-08  Convergence criterion met
 Total energy in the final basis set =     -377.9403554291

                    Orbital Energies (a.u.)
 --------------------------------------------------------------

 Alpha MOs
 -- Occupied --
-19.3841 -19.3363 -19.2962 -19.2958 -10.4850 -10.4562  -1.2507  -1.1803
 -1.1596  -1.0937  -0.7975  -0.6733  -0.6177  -0.5943  -0.5840  -0.5424
 -0.5257  -0.5145  -0.4405  -0.4359  -0.3805  -0.3740  -0.3592

 Beta MOs
 -- Occupied --
-19.3841 -19.3363 -19.2962 -19.2958 -10.4850 -10.4562  -1.2507  -1.1803
 -1.1596  -1.0937  -0.7975  -0.6733  -0.6177  -0.5943  -0.5840  -0.5424
 -0.5257  -0.5145  -0.4405  -0.4359  -0.3805  -0.3740  -0.3592

          Ground-State Mulliken Net Atomic Charges

     Atom                 Charge (a.u.)    Spin (a.u.)
  --------------------------------------------------------
      1 C                     0.361870       0.000000
      2 O                    -0.502675       0.000000
      3 C                     0.371087       0.000000
      4 O                    -0.633110       0.000000
      5 O                    -0.636326       0.000000
      6 O                    -0.321703       0.000000
      7 H                     0.360857       0.000000
  --------------------------------------------------------
  Sum of atomic charges =    -1.000000

                    Cartesian Multipole Moments
 -----------------------------------------------------------------
    Charge (ESU x 10^10)
                -4.8032
    Dipole Moment (Debye)
         X     -13.2169      Y      -4.7794      Z      -0.0047
       Tot      14.0545
    Quadrupole Moments (Debye-Ang)
        XX     -71.8813     XY      -1.9927     YY     -49.3340
        XZ      -0.0050     YZ       0.0005     ZZ     -33.9015

             Standard Nuclear Orientation (Angstroms)
    I     Atom           X                Y                Z
 ----------------------------------------------------------------
    1      C       0.5976906250     0.1829920034     0.0003836046
    2      O      -0.2116925879     1.0809780819     0.0002834213
    3      C       2.1394850490     0.4145355110     0.0005056157
    4      O       2.4827968949     1.6120878250     0.0005925006
    5      O       2.8556453186    -0.6050976549     0.0004820653
    6      O       0.2596265223    -1.1065494245     0.0003349708
    7      H      -0.7087105219    -1.1729699418     0.0002458218
 ----------------------------------------------------------------

 Frequency:         7.37                 293.31                 443.10
 Force Cnst:      0.0004                 0.5615                 1.3096
 Red. Mass:      13.2698                11.0778                11.3208
 IR Intens:        2.921                  2.658                  7.099
 Frequency:       454.78                 538.76                 632.95
 Force Cnst:      0.3843                 2.2286                 0.3457
 Red. Mass:       3.1538                13.0315                 1.4645
 IR Intens:        0.661                  2.188                277.084
 Frequency:       680.05                 843.82                 867.42
 Force Cnst:      1.3263                 3.5616                 5.4413
 Red. Mass:       4.8675                 8.4898                12.2743
 IR Intens:      164.952                 43.895                  0.009
 Frequency:      1145.39                1310.16                1419.38
 Force Cnst:      2.3705                 2.3940                 8.8041
 Red. Mass:       3.0668                 2.3671                 7.4171
 IR Intens:      608.183                153.754                237.259
 Frequency:      1626.42                1755.74                3738.22
 Force Cnst:     20.1123                19.8163                 8.7673
 Red. Mass:      12.9046                10.9107                 1.0648
 IR Intens:     1543.330                543.916                187.379

 STANDARD THERMODYNAMIC QUANTITIES AT   298.15 K  AND     1.00 ATM

   This Molecule has  0 Imaginary Frequencies
   Zero point vibrational energy:       22.526 kcal/mol

   Atom    1 Element C  Has Mass   12.00000
   Atom    2 Element O  Has Mass   15.99491
   Atom    3 Element C  Has Mass   12.00000
   Atom    4 Element O  Has Mass   15.99491
   Atom    5 Element O  Has Mass   15.99491
   Atom    6 Element O  Has Mass   15.99491
   Atom    7 Element H  Has Mass    1.00783
   Molecular Mass:    88.987470 amu
   Principal axes and moments of inertia in amu*Bohr^2:
                             1           2           3
    Eigenvalues --      290.84956   486.14659   776.99616
          X               0.97388    -0.22705    -0.00008
          Y               0.22705     0.97388    -0.00003
          Z               0.00008     0.00001     1.00000
   Rotational Symmetry Number is   1
   The Molecule is an Asymmetric Top
   Translational Enthalpy:        0.889 kcal/mol
   Rotational Enthalpy:           0.889 kcal/mol
   Vibrational Enthalpy:         24.105 kcal/mol
   gas constant (RT):             0.592 kcal/mol
   Translational Entropy:        39.370  cal/mol.K
   Rotational Entropy:           26.199  cal/mol.K
   Vibrational Entropy:          13.405  cal/mol.K

   Total Enthalpy:               26.475 kcal/mol
   Total Entropy:                78.974  cal/mol.K
 Total job time:  1419.05s(wall), 10968.06s(cpu)
        *  Thank you very much for using Q-Chem.  Have a nice day.  *
