 Q-Chem 5.4, Q-Chem, Inc., Pleasanton, CA (2021)
 Q-Chem 5.4.1 for Intel X86 EM64T Linux

User input:
--------------------------------------------------------------
$molecule
-1 1
C         0.6026823240    0.1834390997    0.0003670977
O        -0.2190876987    1.0796294275    0.0002601402
C         2.1439076265    0.4142537606    0.0004835274
O         2.4783078794    1.6194609219    0.0007069546
O         2.8575905930   -0.6126796003    0.0004050805
O         0.2639515972   -1.1164511847    0.0003425851
H        -0.7125110214   -1.1616760247    0.0002626145
$end

$rem
BASIS = 6-311++G(2df,2p)
GUI = 2
JOB_TYPE = Optimization
METHOD = wB97M-V
SCF_ALGORITHM = DIIS_GDM
MAX_SCF_CYCLES = 400
GEOM_OPT_MAX_CYCLES = 150
SCF_CONVERGENCE = 7
THRESH = 12
Solvent_method = SMD
$end
--------------------------------------------------------------

   14    -377.9489082271      8.98e-08  Convergence criterion met
 Total energy in the final basis set =     -377.9400136036
   15    -377.9493326166      5.01e-08  Convergence criterion met
 Total energy in the final basis set =     -377.9403360058
   16    -377.9479844881      3.79e-08  Convergence criterion met
 Total energy in the final basis set =     -377.9389591870
   16    -377.9493747823      3.96e-08  Convergence criterion met
 Total energy in the final basis set =     -377.9403470731
   15    -377.9493657430      7.40e-08  Convergence criterion met
 Total energy in the final basis set =     -377.9403492224
   15    -377.9493774119      8.26e-08  Convergence criterion met
 Total energy in the final basis set =     -377.9403540448
   15    -377.9493689058      4.37e-08  Convergence criterion met
 Total energy in the final basis set =     -377.9403372833

             Standard Nuclear Orientation (Angstroms)
    I     Atom           X                Y                Z
 ----------------------------------------------------------------
    1      C       0.5976906250     0.1829920034     0.0003836046
    2      O      -0.2116925879     1.0809780819     0.0002834213
    3      C       2.1394850490     0.4145355110     0.0005056157
    4      O       2.4827968949     1.6120878250     0.0005925006
    5      O       2.8556453186    -0.6050976549     0.0004820653
    6      O       0.2596265223    -1.1065494245     0.0003349708
    7      H      -0.7087105219    -1.1729699418     0.0002458218
 ----------------------------------------------------------------

   15    -377.9493799974      4.22e-08  Convergence criterion met
 Total energy in the final basis set =     -377.9403554510
 Final energy is   -377.940355451039
 **  OPTIMIZATION CONVERGED  **

                    Orbital Energies (a.u.)
 --------------------------------------------------------------

 Alpha MOs
 -- Occupied --
-19.3841 -19.3363 -19.2962 -19.2958 -10.4850 -10.4562  -1.2507  -1.1803
 -1.1596  -1.0937  -0.7975  -0.6733  -0.6177  -0.5943  -0.5840  -0.5424
 -0.5257  -0.5145  -0.4405  -0.4359  -0.3805  -0.3740  -0.3592

          Ground-State Mulliken Net Atomic Charges

     Atom                 Charge (a.u.)
  ----------------------------------------
      1 C                     0.361870
      2 O                    -0.502675
      3 C                     0.371087
      4 O                    -0.633110
      5 O                    -0.636326
      6 O                    -0.321703
      7 H                     0.360857
  ----------------------------------------
  Sum of atomic charges =    -1.000000

                    Cartesian Multipole Moments
 -----------------------------------------------------------------
    Charge (ESU x 10^10)
                -4.8032
    Dipole Moment (Debye)
         X     -13.2169      Y      -4.7794      Z      -0.0025
       Tot      14.0545
    Quadrupole Moments (Debye-Ang)
        XX     -71.8813     XY      -1.9927     YY     -49.3340
        XZ      -0.0071     YZ      -0.0022     ZZ     -33.9015

 Total job time:  294.16s(wall), 2272.22s(cpu)
        *  Thank you very much for using Q-Chem.  Have a nice day.  *
