 Q-Chem 5.4, Q-Chem, Inc., Pleasanton, CA (2021)
 Q-Chem 5.4.1 for Intel X86 EM64T Linux

User input:
--------------------------------------------------------------
$molecule
0 2
O        -0.4628443119    1.4062765168   -0.3338263962
C         0.0001780212    0.4576397441    0.5699888494
O        -0.9991184032   -0.4100108625    0.9945623619
C         1.1585387697   -0.3123762542   -0.0500006829
O         2.0694287861    0.4823349227   -0.5845675524
O         1.2217330546   -1.5180777080   -0.0011624366
H        -1.0496509914    2.0161099922    0.1307241003
H        -0.6649513630   -1.3165348992    0.9062656099
H         2.7994759286   -0.0533732966   -0.9357000371
H         0.4330768658    0.9910550084    1.4857371922
O         1.2872704652    1.6529693057    2.5904387587
H         2.0679795783    1.7852775305    2.0246481329
$end

$rem
BASIS = 6-311++G**
JOB_TYPE = SP
METHOD = wB97M-V
SCF_ALGORITHM = DIIS_GDM
MAX_SCF_CYCLES = 400
SCF_CONVERGENCE = 7
THRESH = 12
Solvent_method = SMD
$end
--------------------------------------------------------------

             Standard Nuclear Orientation (Angstroms)
    I     Atom           X                Y                Z
 ----------------------------------------------------------------
    1      O      -0.4628443119     1.4062765168    -0.3338263962
    2      C       0.0001780212     0.4576397441     0.5699888494
    3      O      -0.9991184032    -0.4100108625     0.9945623619
    4      C       1.1585387697    -0.3123762542    -0.0500006829
    5      O       2.0694287861     0.4823349227    -0.5845675524
    6      O       1.2217330546    -1.5180777080    -0.0011624366
    7      H      -1.0496509914     2.0161099922     0.1307241003
    8      H      -0.6649513630    -1.3165348992     0.9062656099
    9      H       2.7994759286    -0.0533732966    -0.9357000371
   10      H       0.4330768658     0.9910550084     1.4857371922
   11      O       1.2872704652     1.6529693057     2.5904387587
   12      H       2.0679795783     1.7852775305     2.0246481329
 ----------------------------------------------------------------

   23    -455.2992731550      3.30e-08  Convergence criterion met
 Total energy in the final basis set =     -455.2917558262

                    Orbital Energies (a.u.)
 --------------------------------------------------------------

 Alpha MOs
 -- Occupied --
-19.3993 -19.3860 -19.3661 -19.3621 -19.3542 -10.5085 -10.4829  -1.2732
 -1.2232  -1.1847  -1.1559  -1.1355  -0.8678  -0.7520  -0.6900  -0.6736
 -0.6477  -0.6175  -0.5875  -0.5683  -0.5479  -0.5312  -0.5088  -0.4901
 -0.4558  -0.4533  -0.4400  -0.4242  -0.3863

 Beta MOs
 -- Occupied --
-19.3993 -19.3652 -19.3649 -19.3610 -19.3540 -10.5084 -10.4791  -1.2727
 -1.2207  -1.1841  -1.1538  -1.0804  -0.8631  -0.7480  -0.6856  -0.6676
 -0.6416  -0.6119  -0.5748  -0.5528  -0.5468  -0.5238  -0.4886  -0.4537
 -0.4377  -0.4310  -0.4259  -0.4055

          Ground-State Mulliken Net Atomic Charges

     Atom                 Charge (a.u.)    Spin (a.u.)
  --------------------------------------------------------
      1 O                    -0.284124       0.028871
      2 C                    -0.361778       0.170741
      3 O                    -0.283131       0.037360
      4 C                     0.192659      -0.005159
      5 O                    -0.191220       0.000520
      6 O                    -0.346723       0.009426
      7 H                     0.356465       0.000794
      8 H                     0.303389       0.000941
      9 H                     0.368020       0.000188
     10 H                     0.306487      -0.036231
     11 O                    -0.369440       0.805669
     12 H                     0.309396      -0.013122
  --------------------------------------------------------
  Sum of atomic charges =    -0.000000

                    Cartesian Multipole Moments
 -----------------------------------------------------------------
    Charge (ESU x 10^10)
                -0.0000
    Dipole Moment (Debye)
         X       3.0423      Y       1.1410      Z      -1.4852
       Tot       3.5725
    Quadrupole Moments (Debye-Ang)
        XX     -29.9538     XY       0.9124     YY     -42.1887
        XZ      -1.9474     YZ      -0.1454     ZZ     -49.8065

 Total job time:  85.42s(wall), 323.48s(cpu)
        *  Thank you very much for using Q-Chem.  Have a nice day.  *
