 Q-Chem 5.4, Q-Chem, Inc., Pleasanton, CA (2021)
 Q-Chem 5.4.1 for Intel X86 EM64T Linux

User input:
--------------------------------------------------------------
$molecule
0 2
C         0.5259361465    0.2043921395    0.4740676009
O         1.2874533448   -0.5711169147    0.9869908096
H        -2.5875831013    0.7760436896   -0.2342908893
C        -0.9933530291   -0.0778802264    0.4538855820
O        -1.1924198531   -1.3245821325   -0.0584423260
O        -1.6382660789    0.9534424243   -0.1592693111
O         0.9252740252    1.3236119123   -0.1025326688
H         0.1686586019    1.8175050908   -0.4603742573
O        -1.4339563021   -0.1633635542    1.8680049276
O        -1.1076507085    0.9154251556    2.5200574009
H        -2.1404694451   -1.4927940843   -0.1674083686
$end

$rem
BASIS = def2-QZVP
JOB_TYPE = SP
METHOD = wB97M-V
SCF_ALGORITHM = DIIS_GDM
MAX_SCF_CYCLES = 400
SCF_CONVERGENCE = 7
THRESH = 12
Solvent_method = SMD
$end
--------------------------------------------------------------

             Standard Nuclear Orientation (Angstroms)
    I     Atom           X                Y                Z
 ----------------------------------------------------------------
    1      C       0.5259361465     0.2043921395     0.4740676009
    2      O       1.2874533448    -0.5711169147     0.9869908096
    3      H      -2.5875831013     0.7760436896    -0.2342908893
    4      C      -0.9933530291    -0.0778802264     0.4538855820
    5      O      -1.1924198531    -1.3245821325    -0.0584423260
    6      O      -1.6382660789     0.9534424243    -0.1592693111
    7      O       0.9252740252     1.3236119123    -0.1025326688
    8      H       0.1686586019     1.8175050908    -0.4603742573
    9      O      -1.4339563021    -0.1633635542     1.8680049276
   10      O      -1.1076507085     0.9154251556     2.5200574009
   11      H      -2.1404694451    -1.4927940843    -0.1674083686
 ----------------------------------------------------------------

   22    -529.3780828448      6.45e-08  Convergence criterion met
 Total energy in the final basis set =     -529.3713736381

                    Orbital Energies (a.u.)
 --------------------------------------------------------------

 Alpha MOs
 -- Occupied --
-19.4683 -19.4277 -19.3968 -19.3810 -19.3771 -19.3458 -10.5438 -10.5086
 -1.3615  -1.2709  -1.2419  -1.1902  -1.1715  -1.0092  -0.8585  -0.7533
 -0.7160  -0.7079  -0.6875  -0.6234  -0.6138  -0.5972  -0.5748  -0.5718
 -0.5306  -0.5059  -0.4941  -0.4528  -0.4486  -0.4263  -0.4116  -0.4030

 Beta MOs
 -- Occupied --
-19.4588 -19.4084 -19.3967 -19.3808 -19.3772 -19.3459 -10.5442 -10.5085
 -1.3385  -1.2684  -1.2397  -1.1901  -1.1714  -0.9745  -0.8535  -0.7528
 -0.7139  -0.6950  -0.6818  -0.6002  -0.5965  -0.5812  -0.5718  -0.5489
 -0.5281  -0.4956  -0.4869  -0.4508  -0.4476  -0.4198  -0.3902

          Ground-State Mulliken Net Atomic Charges

     Atom                 Charge (a.u.)    Spin (a.u.)
  --------------------------------------------------------
      1 C                     0.312315       0.003723
      2 O                    -0.357872      -0.001624
      3 H                     0.344442      -0.000387
      4 C                     0.385501      -0.009065
      5 O                    -0.401247       0.000420
      6 O                    -0.391179       0.005906
      7 O                    -0.315546       0.001245
      8 H                     0.333459      -0.000443
      9 O                    -0.061205       0.294054
     10 O                    -0.187623       0.706244
     11 H                     0.338955      -0.000074
  --------------------------------------------------------
  Sum of atomic charges =     0.000000

                    Cartesian Multipole Moments
 -----------------------------------------------------------------
    Charge (ESU x 10^10)
                 0.0000
    Dipole Moment (Debye)
         X      -7.3742      Y       1.4085      Z      -4.5897
       Tot       8.7994
    Quadrupole Moments (Debye-Ang)
        XX     -34.4141     XY       3.2164     YY     -44.5513
        XZ       1.9820     YZ      -1.2903     ZZ     -53.6519

 Total job time:  1843.47s(wall), 7316.39s(cpu)
        *  Thank you very much for using Q-Chem.  Have a nice day.  *
