 Q-Chem 5.4, Q-Chem, Inc., Pleasanton, CA (2021)
 Q-Chem 5.4.1 for Intel X86 EM64T Linux

User input:
--------------------------------------------------------------
$molecule
0 2
C   -1.5116894   -0.5633058    0.5979298
O   -0.9394122   -1.3084118    1.5044541
O   -1.8451438   -0.7730962   -0.5197593
O   -1.6000247    1.4841467    1.8470778
O   -1.1368839    1.3372906    2.9483576
H   -0.7674142   -2.2068134    1.1580386
$end

$rem
BASIS = 6-311++G(2df,2p)
GUI = 2
JOB_TYPE = Frequency
METHOD = wB97M-V
SOLVENT_METHOD = SMD
SCF_ALGORITHM = DIIS_GDM
MAX_SCF_CYCLES = 400
SCF_CONVERGENCE = 7
THRESH = 12
SYMMETRY_IGNORE = 1
$end

--------------------------------------------------------------

   23    -339.4574470936      7.47e-08  Convergence criterion met
 Total energy in the final basis set =     -339.4506481390
   17    -339.4574477867      5.02e-08  Convergence criterion met
 Total energy in the final basis set =     -339.4506478517
   17    -339.4574458462      4.90e-08  Convergence criterion met
 Total energy in the final basis set =     -339.4506478872
   17    -339.4574435820      4.93e-08  Convergence criterion met
 Total energy in the final basis set =     -339.4506476078
   17    -339.4574494016      5.10e-08  Convergence criterion met
 Total energy in the final basis set =     -339.4506474879
   17    -339.4574457829      4.92e-08  Convergence criterion met
 Total energy in the final basis set =     -339.4506465893
   17    -339.4574453028      4.89e-08  Convergence criterion met
 Total energy in the final basis set =     -339.4506466344
   17    -339.4574447838      4.93e-08  Convergence criterion met
 Frequency:      -129.67                  52.46                  85.37
 Force Cnst:      0.1436                 0.0213                 0.0393
 Red. Mass:      14.4986                13.1563                 9.1518
 IR Intens:       30.457                  0.745                  5.217
 Frequency:       118.48                 249.86                 548.24
 Force Cnst:      0.0264                 0.5515                 0.2718
 Red. Mass:       3.1964                14.9943                 1.5347
 IR Intens:       29.459                  0.721                198.441
 Frequency:       605.03                1075.30                1287.56
 Force Cnst:      0.8275                 3.4341                 1.5364
 Red. Mass:       3.8367                 5.0409                 1.5730
 IR Intens:      113.387                338.178                101.604
 Frequency:      1610.32                1821.26                3611.54
 Force Cnst:     23.7567                25.9618                 8.1754
 Red. Mass:      15.5493                13.2843                 1.0638
 IR Intens:      322.966                938.985                176.775

 STANDARD THERMODYNAMIC QUANTITIES AT   298.15 K  AND     1.00 ATM

   This Molecule has  1 Imaginary Frequencies
   Zero point vibrational energy:       15.819 kcal/mol

   Atom    1 Element C  Has Mass   12.00000
   Atom    2 Element O  Has Mass   15.99491
   Atom    3 Element O  Has Mass   15.99491
   Atom    4 Element O  Has Mass   15.99491
   Atom    5 Element O  Has Mass   15.99491
   Atom    6 Element H  Has Mass    1.00783
   Molecular Mass:    76.987470 amu
   Principal axes and moments of inertia in amu*Bohr^2:
                             1           2           3
    Eigenvalues --      161.25623   646.04124   807.24560
          X               0.06821    -0.42124     0.90438
          Y               0.70353     0.66304     0.25577
          Z               0.70738    -0.61882    -0.34158
   Rotational Symmetry Number is   1
   The Molecule is an Asymmetric Top
   Translational Enthalpy:        0.889 kcal/mol
   Rotational Enthalpy:           0.889 kcal/mol
   Vibrational Enthalpy:         17.809 kcal/mol
   gas constant (RT):             0.592 kcal/mol
   Translational Entropy:        38.938  cal/mol.K
   Rotational Entropy:           25.933  cal/mol.K
   Vibrational Entropy:          14.439  cal/mol.K

   Total Enthalpy:               20.178 kcal/mol
   Total Entropy:                79.311  cal/mol.K
 Total job time:  661.51s(wall), 10149.04s(cpu)
        *  Thank you very much for using Q-Chem.  Have a nice day.  *
 Q-Chem 5.4, Q-Chem, Inc., Pleasanton, CA (2021)
 Q-Chem 5.4.1 for Intel X86 EM64T Linux

User input:
--------------------------------------------------------------

$molecule
read
$end

$rem
JOBTYPE            rpath
SCF_GUESS          read
RPATH_MAX_CYCLES   30
BASIS = 6-311++G(2df,2p)
METHOD = wB97M-V
SOLVENT_METHOD = SMD
SCF_ALGORITHM = DIIS_GDM
SCF_CONVERGENCE = 7
THRESH = 12
$end
--------------------------------------------------------------

 Total energy in the final basis set =     -339.4508044413
   17    -339.4562228606      9.61e-08  Convergence criterion met
 Total energy in the final basis set =     -339.4494445886
   16    -339.4575242669      9.19e-08  Convergence criterion met
 Total energy in the final basis set =     -339.4508048777
   19    -339.4573845639      6.08e-08  Convergence criterion met
 Total energy in the final basis set =     -339.4506595899
   17    -339.4575228251      7.87e-08  Convergence criterion met
 Total energy in the final basis set =     -339.4507975662
   17    -339.4575705829      6.40e-08  Convergence criterion met
 Total energy in the final basis set =     -339.4508469328
   16    -339.4573750030      9.63e-08  Convergence criterion met
 Total energy in the final basis set =     -339.4506824774
   16    -339.4576305087      8.30e-08  Convergence criterion met
 Total energy in the final basis set =     -339.4509173412

                    Orbital Energies (a.u.)
 --------------------------------------------------------------

 Alpha MOs
 -- Occupied --
-19.4889 -19.4675 -19.4132 -19.3756 -10.4968  -1.4201  -1.2694  -1.1955
 -0.9531  -0.7627  -0.6662  -0.6639  -0.6533  -0.6357  -0.5876  -0.5842
 -0.4801  -0.4674  -0.4034  -0.3960

 Beta MOs
 -- Occupied --
-19.4611 -19.4403 -19.4157 -19.3813 -10.5075  -1.3688  -1.2794  -1.2069
 -0.8769  -0.7803  -0.6481  -0.6323  -0.6037  -0.5983  -0.5632  -0.5600
 -0.5015  -0.4703  -0.3213

          Ground-State Mulliken Net Atomic Charges

     Atom                 Charge (a.u.)    Spin (a.u.)
  --------------------------------------------------------
      1 C                     0.232930      -0.627532
      2 O                    -0.236749      -0.001406
      3 O                    -0.335914      -0.168680
      4 O                     0.001845       0.926608
      5 O                    -0.028822       0.907650
      6 H                     0.366710      -0.036640
  --------------------------------------------------------
  Sum of atomic charges =    -0.000000

                    Cartesian Multipole Moments
 -----------------------------------------------------------------
    Charge (ESU x 10^10)
                -0.0000
    Dipole Moment (Debye)
         X       1.1383      Y      -2.9094      Z       0.6454
       Tot       3.1901
    Quadrupole Moments (Debye-Ang)
        XX     -30.0752     XY       1.7414     YY     -20.3128
        XZ      -1.9638     YZ      -4.5727     ZZ     -32.3788

             Standard Nuclear Orientation (Angstroms)
    I     Atom           X                Y                Z
 ----------------------------------------------------------------
    1      C      -1.5116894000    -0.5633058000     0.5979298000
    2      O      -0.9394122000    -1.3084118000     1.5044541000
    3      O      -1.8451438000    -0.7730962000    -0.5197593000
    4      O      -1.6000247000     1.4841467000     1.8470778000
    5      O      -1.1368839000     1.3372906000     2.9483576000
    6      H      -0.7674142000    -2.2068134000     1.1580386000
 ----------------------------------------------------------------

 Total job time:  300.36s(wall), 4598.15s(cpu)
        *  Thank you very much for using Q-Chem.  Have a nice day.  *
