 Q-Chem 5.4, Q-Chem, Inc., Pleasanton, CA (2021)
 Q-Chem 5.4.1 for Intel X86 EM64T Linux

User input:
--------------------------------------------------------------
$molecule
0 2
O        -0.4628443119    1.4062765168   -0.3338263962
C         0.0001780212    0.4576397441    0.5699888494
O        -0.9991184032   -0.4100108625    0.9945623619
C         1.1585387697   -0.3123762542   -0.0500006829
O         2.0694287861    0.4823349227   -0.5845675524
O         1.2217330546   -1.5180777080   -0.0011624366
H        -1.0496509914    2.0161099922    0.1307241003
H        -0.6649513630   -1.3165348992    0.9062656099
H         2.7994759286   -0.0533732966   -0.9357000371
H         0.4330768658    0.9910550084    1.4857371922
O         1.2872704652    1.6529693057    2.5904387587
H         2.0679795783    1.7852775305    2.0246481329
$end

$rem
BASIS = def2-TZVPPD
JOB_TYPE = SP
METHOD = wB97M-V
SCF_ALGORITHM = DIIS_GDM
MAX_SCF_CYCLES = 400
SCF_CONVERGENCE = 7
THRESH = 12
Solvent_method = SMD
$end
--------------------------------------------------------------

             Standard Nuclear Orientation (Angstroms)
    I     Atom           X                Y                Z
 ----------------------------------------------------------------
    1      O      -0.4628443119     1.4062765168    -0.3338263962
    2      C       0.0001780212     0.4576397441     0.5699888494
    3      O      -0.9991184032    -0.4100108625     0.9945623619
    4      C       1.1585387697    -0.3123762542    -0.0500006829
    5      O       2.0694287861     0.4823349227    -0.5845675524
    6      O       1.2217330546    -1.5180777080    -0.0011624366
    7      H      -1.0496509914     2.0161099922     0.1307241003
    8      H      -0.6649513630    -1.3165348992     0.9062656099
    9      H       2.7994759286    -0.0533732966    -0.9357000371
   10      H       0.4330768658     0.9910550084     1.4857371922
   11      O       1.2872704652     1.6529693057     2.5904387587
   12      H       2.0679795783     1.7852775305     2.0246481329
 ----------------------------------------------------------------

   22    -455.3542334552      9.69e-08  Convergence criterion met
 Total energy in the final basis set =     -455.3467161264

                    Orbital Energies (a.u.)
 --------------------------------------------------------------

 Alpha MOs
 -- Occupied --
-19.3963 -19.3836 -19.3631 -19.3589 -19.3495 -10.5026 -10.4785  -1.2670
 -1.2176  -1.1788  -1.1506  -1.1317  -0.8633  -0.7474  -0.6860  -0.6695
 -0.6439  -0.6137  -0.5849  -0.5657  -0.5451  -0.5291  -0.5066  -0.4871
 -0.4541  -0.4510  -0.4379  -0.4215  -0.3835

 Beta MOs
 -- Occupied --
-19.3963 -19.3626 -19.3623 -19.3578 -19.3492 -10.5025 -10.4747  -1.2665
 -1.2151  -1.1781  -1.1486  -1.0766  -0.8585  -0.7433  -0.6813  -0.6635
 -0.6379  -0.6080  -0.5721  -0.5507  -0.5440  -0.5216  -0.4856  -0.4514
 -0.4358  -0.4286  -0.4247  -0.4028

          Ground-State Mulliken Net Atomic Charges

     Atom                 Charge (a.u.)    Spin (a.u.)
  --------------------------------------------------------
      1 O                    -0.437069       0.026605
      2 C                     0.895185       0.145002
      3 O                    -0.522029       0.033929
      4 C                     0.630536      -0.001381
      5 O                    -0.328911       0.000846
      6 O                    -0.656688       0.009076
      7 H                     0.183214      -0.000954
      8 H                     0.256177       0.001494
      9 H                     0.247023       0.000290
     10 H                    -0.111029      -0.001531
     11 O                    -0.416264       0.813735
     12 H                     0.259855      -0.027111
  --------------------------------------------------------
  Sum of atomic charges =    -0.000000

                    Cartesian Multipole Moments
 -----------------------------------------------------------------
    Charge (ESU x 10^10)
                -0.0000
    Dipole Moment (Debye)
         X       2.8814      Y       1.2546      Z      -1.4694
       Tot       3.4693
    Quadrupole Moments (Debye-Ang)
        XX     -29.8240     XY       0.9551     YY     -41.8463
        XZ      -2.1486     YZ      -0.1424     ZZ     -48.9740

 Total job time:  480.10s(wall), 1900.33s(cpu)
        *  Thank you very much for using Q-Chem.  Have a nice day.  *
