 Q-Chem 5.4, Q-Chem, Inc., Pleasanton, CA (2021)
 Q-Chem 5.4.1 for Intel X86 EM64T Linux

User input:
--------------------------------------------------------------
$molecule
-1 2
C         0.6332016938    0.2492218888    0.7584201423
O         1.4025855345   -0.2466265649    1.5928966321
H        -1.9375709960   -1.0123331655   -0.8866207339
C        -0.5876356319   -0.6521105713    0.4044916578
O        -0.8569532521   -1.6133086963    1.1906387653
O        -1.1874161180   -0.4200235349   -0.6924266891
O         0.6788790895    1.3139223991    0.1285257991
O        -1.4798178908    1.1120009332    2.5219901422
O        -2.4778756125    0.8597842175    1.6870392901
H        -1.6207131163   -2.1609506057    0.9312915941
$end

$rem
BASIS = def2-TZVP
JOB_TYPE = SP
METHOD = wB97M-V
SCF_ALGORITHM = DIIS_GDM
MAX_SCF_CYCLES = 400
SCF_CONVERGENCE = 7
THRESH = 12
Solvent_method = SMD
$end
--------------------------------------------------------------

             Standard Nuclear Orientation (Angstroms)
    I     Atom           X                Y                Z
 ----------------------------------------------------------------
    1      C       0.6332016938     0.2492218888     0.7584201423
    2      O       1.4025855345    -0.2466265649     1.5928966321
    3      H      -1.9375709960    -1.0123331655    -0.8866207339
    4      C      -0.5876356319    -0.6521105713     0.4044916578
    5      O      -0.8569532521    -1.6133086963     1.1906387653
    6      O      -1.1874161180    -0.4200235349    -0.6924266891
    7      O       0.6788790895     1.3139223991     0.1285257991
    8      O      -1.4798178908     1.1120009332     2.5219901422
    9      O      -2.4778756125     0.8597842175     1.6870392901
   10      H      -1.6207131163    -2.1609506057     0.9312915941
 ----------------------------------------------------------------

   27    -528.8684124489      9.68e-08  Convergence criterion met
 Total energy in the final basis set =     -528.8602624468

                    Orbital Energies (a.u.)
 --------------------------------------------------------------

 Alpha MOs
 -- Occupied --
-19.4346 -19.4344 -19.3266 -19.3265 -19.2999 -19.2996 -10.5461 -10.4703
 -1.3216  -1.2406  -1.2078  -1.1901  -1.1059  -0.8649  -0.8567  -0.7716
 -0.7076  -0.6341  -0.6262  -0.5705  -0.5500  -0.5378  -0.5324  -0.5187
 -0.5133  -0.5003  -0.4843  -0.3888  -0.3851  -0.3797  -0.3174  -0.2859

 Beta MOs
 -- Occupied --
-19.4347 -19.4344 -19.3123 -19.3122 -19.2999 -19.2996 -10.5461 -10.4703
 -1.3216  -1.2406  -1.1904  -1.1785  -1.1059  -0.8649  -0.8145  -0.7716
 -0.7076  -0.6338  -0.6262  -0.5705  -0.5500  -0.5371  -0.5298  -0.5045
 -0.4924  -0.4697  -0.4303  -0.3886  -0.3848  -0.3795  -0.2669

          Ground-State Mulliken Net Atomic Charges

     Atom                 Charge (a.u.)    Spin (a.u.)
  --------------------------------------------------------
      1 C                     0.317392      -0.002336
      2 O                    -0.551474      -0.000382
      3 H                     0.430806      -0.000140
      4 C                     0.418982      -0.001082
      5 O                    -0.284012      -0.000462
      6 O                    -0.280573      -0.000230
      7 O                    -0.553348       0.000123
      8 O                    -0.459601       0.505804
      9 O                    -0.469380       0.498739
     10 H                     0.431209      -0.000033
  --------------------------------------------------------
  Sum of atomic charges =    -1.000000

                    Cartesian Multipole Moments
 -----------------------------------------------------------------
    Charge (ESU x 10^10)
                -4.8032
    Dipole Moment (Debye)
         X      -2.4588      Y     -13.0000      Z     -13.0854
       Tot      18.6084
    Quadrupole Moments (Debye-Ang)
        XX     -59.9344     XY      18.4200     YY     -46.6756
        XZ      11.4668     YZ      -8.7109     ZZ     -73.4591

 Total job time:  228.95s(wall), 909.34s(cpu)
        *  Thank you very much for using Q-Chem.  Have a nice day.  *
