 Q-Chem 5.4, Q-Chem, Inc., Pleasanton, CA (2021)
 Q-Chem 5.4.1 for Intel X86 EM64T Linux

User input:
--------------------------------------------------------------
$molecule
0 2
O        -0.4628443119    1.4062765168   -0.3338263962
C         0.0001780212    0.4576397441    0.5699888494
O        -0.9991184032   -0.4100108625    0.9945623619
C         1.1585387697   -0.3123762542   -0.0500006829
O         2.0694287861    0.4823349227   -0.5845675524
O         1.2217330546   -1.5180777080   -0.0011624366
H        -1.0496509914    2.0161099922    0.1307241003
H        -0.6649513630   -1.3165348992    0.9062656099
H         2.7994759286   -0.0533732966   -0.9357000371
H         0.4330768658    0.9910550084    1.4857371922
O         1.2872704652    1.6529693057    2.5904387587
H         2.0679795783    1.7852775305    2.0246481329
$end

$rem
BASIS = 6-311++G(3df,2p)
JOB_TYPE = SP
METHOD = wB97M-V
SCF_ALGORITHM = DIIS_GDM
MAX_SCF_CYCLES = 400
SCF_CONVERGENCE = 7
THRESH = 12
Solvent_method = SMD
$end
--------------------------------------------------------------

             Standard Nuclear Orientation (Angstroms)
    I     Atom           X                Y                Z
 ----------------------------------------------------------------
    1      O      -0.4628443119     1.4062765168    -0.3338263962
    2      C       0.0001780212     0.4576397441     0.5699888494
    3      O      -0.9991184032    -0.4100108625     0.9945623619
    4      C       1.1585387697    -0.3123762542    -0.0500006829
    5      O       2.0694287861     0.4823349227    -0.5845675524
    6      O       1.2217330546    -1.5180777080    -0.0011624366
    7      H      -1.0496509914     2.0161099922     0.1307241003
    8      H      -0.6649513630    -1.3165348992     0.9062656099
    9      H       2.7994759286    -0.0533732966    -0.9357000371
   10      H       0.4330768658     0.9910550084     1.4857371922
   11      O       1.2872704652     1.6529693057     2.5904387587
   12      H       2.0679795783     1.7852775305     2.0246481329
 ----------------------------------------------------------------

   23    -455.3261459288      4.57e-08  Convergence criterion met
 Total energy in the final basis set =     -455.3186285999

                    Orbital Energies (a.u.)
 --------------------------------------------------------------

 Alpha MOs
 -- Occupied --
-19.3979 -19.3854 -19.3650 -19.3610 -19.3513 -10.5033 -10.4792  -1.2686
 -1.2195  -1.1804  -1.1526  -1.1337  -0.8649  -0.7490  -0.6873  -0.6709
 -0.6453  -0.6152  -0.5863  -0.5670  -0.5465  -0.5306  -0.5080  -0.4886
 -0.4555  -0.4522  -0.4392  -0.4228  -0.3850

 Beta MOs
 -- Occupied --
-19.3979 -19.3644 -19.3642 -19.3598 -19.3511 -10.5033 -10.4754  -1.2682
 -1.2171  -1.1797  -1.1505  -1.0788  -0.8601  -0.7449  -0.6827  -0.6649
 -0.6393  -0.6094  -0.5734  -0.5522  -0.5454  -0.5231  -0.4871  -0.4526
 -0.4371  -0.4300  -0.4261  -0.4041

          Ground-State Mulliken Net Atomic Charges

     Atom                 Charge (a.u.)    Spin (a.u.)
  --------------------------------------------------------
      1 O                    -0.670529       0.024587
      2 C                     0.478781       0.168793
      3 O                    -0.714733       0.031305
      4 C                     0.803613      -0.005102
      5 O                    -0.534015       0.000579
      6 O                    -0.729723       0.009056
      7 H                     0.323678       0.000620
      8 H                     0.346213       0.002137
      9 H                     0.337700       0.000171
     10 H                     0.528467      -0.023332
     11 O                    -0.497245       0.804763
     12 H                     0.327793      -0.013576
  --------------------------------------------------------
  Sum of atomic charges =    -0.000000

                    Cartesian Multipole Moments
 -----------------------------------------------------------------
    Charge (ESU x 10^10)
                -0.0000
    Dipole Moment (Debye)
         X       2.8820      Y       1.2511      Z      -1.4664
       Tot       3.4672
    Quadrupole Moments (Debye-Ang)
        XX     -29.8878     XY       0.9266     YY     -41.9357
        XZ      -2.1745     YZ      -0.1157     ZZ     -49.0569

 Total job time:  274.01s(wall), 1076.25s(cpu)
        *  Thank you very much for using Q-Chem.  Have a nice day.  *
