 Q-Chem 5.4, Q-Chem, Inc., Pleasanton, CA (2021)
 Q-Chem 5.4.1 for Intel X86 EM64T Linux

User input:
--------------------------------------------------------------
$molecule
0 1
C         1.8026107909    0.1888674354   -1.5827592106
C         0.5574679866   -0.2103242722   -2.3513371899
O         0.4604046718   -1.6103622263   -2.2392152783
O         0.6789985874    0.2257359608   -3.6770076874
O         2.5917587778    1.0114181576   -1.9760263167
H        -0.4582013487   -1.8667010446   -2.3767097880
H        -0.2018245753    0.2711206666   -4.0651477320
H         1.9270653287   -0.3212966643   -0.6169267181
H        -0.2992872192    0.2665557867   -1.8651229790
$end

$rem
BASIS = 6-311++G(2df,2p)
GUI = 2
JOB_TYPE = Frequency
METHOD = wB97M-V
SOLVENT_METHOD = SMD
SCF_ALGORITHM = DIIS_GDM
MAX_SCF_CYCLES = 400
SCF_CONVERGENCE = 7
THRESH = 12
$end
--------------------------------------------------------------

   15    -304.3036837636      2.15e-08  Convergence criterion met
 Total energy in the final basis set =     -304.2975618717
   14    -304.3036862949      7.98e-08  Convergence criterion met
 Total energy in the final basis set =     -304.2975607385
   14    -304.3036790553      8.19e-08  Convergence criterion met
 Total energy in the final basis set =     -304.2975608368
   14    -304.3036852510      8.02e-08  Convergence criterion met
 Total energy in the final basis set =     -304.2975607113
   14    -304.3036801492      8.03e-08  Convergence criterion met
 Total energy in the final basis set =     -304.2975609156
   14    -304.3036830365      8.14e-08  Convergence criterion met
 Total energy in the final basis set =     -304.2975608758
   14    -304.3036824426      8.05e-08  Convergence criterion met
 Total energy in the final basis set =     -304.2975608186
   14    -304.3036822135      8.47e-08  Convergence criterion met
 Total energy in the final basis set =     -304.2975614135
   14    -304.3036832613      8.82e-08  Convergence criterion met
 Total energy in the final basis set =     -304.2975614125
   14    -304.3036831475      8.40e-08  Convergence criterion met
 Total energy in the final basis set =     -304.2975614779
   14    -304.3036835674      7.77e-08  Convergence criterion met
 Total energy in the final basis set =     -304.2975614503
   14    -304.3036835844      8.27e-08  Convergence criterion met
 Total energy in the final basis set =     -304.2975616909
   14    -304.3036835494      7.90e-08  Convergence criterion met
 Total energy in the final basis set =     -304.2975616556
   14    -304.3036835475      8.23e-08  Convergence criterion met
 Total energy in the final basis set =     -304.2975616459
   14    -304.3036835917      7.84e-08  Convergence criterion met
 Total energy in the final basis set =     -304.2975617065

                    Orbital Energies (a.u.)
 --------------------------------------------------------------

 Alpha MOs
 -- Occupied --
-19.3556 -19.3522 -19.3513 -10.4546 -10.4448  -1.2172  -1.1926  -1.1429
 -0.8518  -0.7065  -0.6615  -0.6537  -0.6004  -0.5755  -0.5158  -0.5078
 -0.4924  -0.4262  -0.4184  -0.3816

          Ground-State Mulliken Net Atomic Charges

     Atom                 Charge (a.u.)
  ----------------------------------------
      1 C                     0.180171
      2 C                    -0.036548
      3 O                    -0.431530
      4 O                    -0.441232
      5 O                    -0.376273
      6 H                     0.347629
      7 H                     0.346532
      8 H                     0.188982
      9 H                     0.222269
  ----------------------------------------
  Sum of atomic charges =     0.000000

                    Cartesian Multipole Moments
 -----------------------------------------------------------------
    Charge (ESU x 10^10)
                -0.0000
    Dipole Moment (Debye)
         X      -6.4482      Y      -1.5505      Z       1.4438
       Tot       6.7874
    Quadrupole Moments (Debye-Ang)
        XX     -39.0907     XY      -2.8621     YY     -33.6181
        XZ      20.3567     YZ       3.8291     ZZ     -34.4927

             Standard Nuclear Orientation (Angstroms)
    I     Atom           X                Y                Z
 ----------------------------------------------------------------
    1      C       1.8026107909     0.1888674354    -1.5827592106
    2      C       0.5574679866    -0.2103242722    -2.3513371899
    3      O       0.4604046718    -1.6103622263    -2.2392152783
    4      O       0.6789985874     0.2257359608    -3.6770076874
    5      O       2.5917587778     1.0114181576    -1.9760263167
    6      H      -0.4582013487    -1.8667010446    -2.3767097880
    7      H      -0.2018245753     0.2711206666    -4.0651477320
    8      H       1.9270653287    -0.3212966643    -0.6169267181
    9      H      -0.2992872192     0.2665557867    -1.8651229790
 ----------------------------------------------------------------

 Frequency:        99.19                 243.26                 289.44
 Force Cnst:      0.0191                 0.0437                 0.1092
 Red. Mass:       3.3027                 1.2545                 2.2120
 IR Intens:       13.548                127.242                 82.292
 Frequency:       309.10                 411.03                 563.30
 Force Cnst:      0.0814                 0.3000                 1.3664
 Red. Mass:       1.4463                 3.0143                 7.3090
 IR Intens:      217.002                  9.684                 37.002
 Frequency:       663.99                 871.10                1024.81
 Force Cnst:      1.0080                 1.3403                 1.0357
 Red. Mass:       3.8806                 2.9980                 1.6738
 IR Intens:       54.181                 66.188                 12.299
 Frequency:      1200.99                1216.39                1258.29
 Force Cnst:      1.3498                 0.9298                 2.0404
 Red. Mass:       1.5883                 1.0666                 2.1873
 IR Intens:       14.376                135.405                146.128
 Frequency:      1286.54                1381.24                1422.92
 Force Cnst:      3.6344                 1.3235                 1.7078
 Red. Mass:       3.7268                 1.1774                 1.4316
 IR Intens:      345.049                  7.643                 89.878
 Frequency:      1482.80                1805.31                3024.40
 Force Cnst:      2.3673                19.8892                 5.8623
 Red. Mass:       1.8274                10.3578                 1.0878
 IR Intens:       18.835                319.467                 65.341
 Frequency:      3051.61                3827.66                3829.02
 Force Cnst:      5.9466                 9.2103                 9.2177
 Red. Mass:       1.0838                 1.0670                 1.0671
 IR Intens:       36.523                101.818                217.196

 STANDARD THERMODYNAMIC QUANTITIES AT   298.15 K  AND     1.00 ATM

   This Molecule has  0 Imaginary Frequencies
   Zero point vibrational energy:       41.833 kcal/mol

   Atom    1 Element C  Has Mass   12.00000
   Atom    2 Element C  Has Mass   12.00000
   Atom    3 Element O  Has Mass   15.99491
   Atom    4 Element O  Has Mass   15.99491
   Atom    5 Element O  Has Mass   15.99491
   Atom    6 Element H  Has Mass    1.00783
   Atom    7 Element H  Has Mass    1.00783
   Atom    8 Element H  Has Mass    1.00783
   Atom    9 Element H  Has Mass    1.00783
   Molecular Mass:    76.016050 amu
   Principal axes and moments of inertia in amu*Bohr^2:
                             1           2           3
    Eigenvalues --      199.54538   418.53102   575.58228
          X               0.71357     0.17205     0.67913
          Y               0.64659    -0.53491    -0.54387
          Z               0.26970     0.82721    -0.49294
   Rotational Symmetry Number is   1
   The Molecule is an Asymmetric Top
   Translational Enthalpy:        0.889 kcal/mol
   Rotational Enthalpy:           0.889 kcal/mol
   Vibrational Enthalpy:         43.624 kcal/mol
   gas constant (RT):             0.592 kcal/mol
   Translational Entropy:        38.900  cal/mol.K
   Rotational Entropy:           25.378  cal/mol.K
   Vibrational Entropy:          10.319  cal/mol.K

   Total Enthalpy:               45.994 kcal/mol
   Total Entropy:                74.597  cal/mol.K
 Total job time:  1978.39s(wall), 15230.98s(cpu)
        *  Thank you very much for using Q-Chem.  Have a nice day.  *
