 Q-Chem 5.4, Q-Chem, Inc., Pleasanton, CA (2021)
 Q-Chem 5.4.1 for Intel X86 EM64T Linux

User input:
--------------------------------------------------------------
$molecule
0 1
C         1.8061416052    0.1885647080   -1.5815240163
C         0.5515053603   -0.2051646646   -2.3432067586
O         0.4560229823   -1.6067692169   -2.2308648444
O         0.6844178555    0.2461739232   -3.6656733161
O         2.5921130709    1.0197380536   -1.9821411387
H        -0.4665227139   -1.8520585622   -2.4092389494
H        -0.1992097212    0.2221968992   -4.0681002628
H         1.9420466063   -0.3319704769   -0.6174727518
H        -0.3075220453    0.2743031363   -1.8520308619
$end

$rem
BASIS = 6-311++G(2df,2p)
GUI = 2
JOB_TYPE = Optimization
METHOD = wB97M-V
SCF_ALGORITHM = DIIS_GDM
MAX_SCF_CYCLES = 400
GEOM_OPT_MAX_CYCLES = 150
SCF_CONVERGENCE = 7
THRESH = 12
UNRESTRICTED = 1
Solvent_method = SMD
$end
--------------------------------------------------------------

   14    -304.3032820617      4.94e-08  Convergence criterion met
 Total energy in the final basis set =     -304.2972163543
   14    -304.3036179137      7.82e-08  Convergence criterion met
 Total energy in the final basis set =     -304.2975113293
   14    -304.3032583044      6.71e-08  Convergence criterion met
 Total energy in the final basis set =     -304.2971460463
   14    -304.3036555012      5.25e-08  Convergence criterion met
 Total energy in the final basis set =     -304.2975440394
   14    -304.3036655851      7.57e-08  Convergence criterion met
 Total energy in the final basis set =     -304.2975511758
   14    -304.3036783637      6.94e-08  Convergence criterion met
 Total energy in the final basis set =     -304.2975587038
   14    -304.3036841899      6.98e-08  Convergence criterion met
 Total energy in the final basis set =     -304.2975617032

             Standard Nuclear Orientation (Angstroms)
    I     Atom           X                Y                Z
 ----------------------------------------------------------------
    1      C       1.8026107909     0.1888674354    -1.5827592106
    2      C       0.5574679866    -0.2103242722    -2.3513371899
    3      O       0.4604046718    -1.6103622263    -2.2392152783
    4      O       0.6789985874     0.2257359608    -3.6770076874
    5      O       2.5917587778     1.0114181576    -1.9760263167
    6      H      -0.4582013487    -1.8667010446    -2.3767097880
    7      H      -0.2018245753     0.2711206666    -4.0651477320
    8      H       1.9270653287    -0.3212966643    -0.6169267181
    9      H      -0.2992872192     0.2665557867    -1.8651229790
 ----------------------------------------------------------------

   14    -304.3036837636      7.32e-08  Convergence criterion met
 Total energy in the final basis set =     -304.2975618717
 Final energy is   -304.297561871721
 **  OPTIMIZATION CONVERGED  **

                    Orbital Energies (a.u.)
 --------------------------------------------------------------

 Alpha MOs
 -- Occupied --
-19.3556 -19.3522 -19.3513 -10.4546 -10.4448  -1.2172  -1.1926  -1.1430
 -0.8518  -0.7064  -0.6614  -0.6537  -0.6004  -0.5755  -0.5158  -0.5078
 -0.4924  -0.4262  -0.4185  -0.3816

 Beta MOs
 -- Occupied --
-19.3556 -19.3522 -19.3513 -10.4546 -10.4448  -1.2172  -1.1926  -1.1430
 -0.8518  -0.7064  -0.6614  -0.6537  -0.6004  -0.5755  -0.5158  -0.5078
 -0.4924  -0.4262  -0.4185  -0.3816

          Ground-State Mulliken Net Atomic Charges

     Atom                 Charge (a.u.)    Spin (a.u.)
  --------------------------------------------------------
      1 C                     0.180236       0.000000
      2 C                    -0.036669       0.000000
      3 O                    -0.431517       0.000000
      4 O                    -0.441192       0.000000
      5 O                    -0.376294       0.000000
      6 H                     0.347642       0.000000
      7 H                     0.346534       0.000000
      8 H                     0.188998       0.000000
      9 H                     0.222261       0.000000
  --------------------------------------------------------
  Sum of atomic charges =    -0.000000

                    Cartesian Multipole Moments
 -----------------------------------------------------------------
    Charge (ESU x 10^10)
                 0.0000
    Dipole Moment (Debye)
         X      -6.4483      Y      -1.5508      Z       1.4436
       Tot       6.7874
    Quadrupole Moments (Debye-Ang)
        XX     -39.0923     XY      -2.8625     YY     -33.6188
        XZ      20.3556     YZ       3.8297     ZZ     -34.4902

 Total job time:  347.69s(wall), 2687.92s(cpu)
        *  Thank you very much for using Q-Chem.  Have a nice day.  *
