 Q-Chem 5.4, Q-Chem, Inc., Pleasanton, CA (2021)
 Q-Chem 5.4.1 for Intel X86 EM64T Linux

User input:
--------------------------------------------------------------
$molecule
0 2
C         0.6072589961    0.0995536333    0.2712972596
O         1.4192510827   -0.7394525853    0.5581470688
H        -2.1260616732    1.1525978741    0.6669314370
C        -0.8871968854   -0.2005200305    0.1817492238
O        -1.1409735157   -1.4918035736    0.0903525274
O        -1.6789620209    0.6859210684   -0.2986863993
O         0.9279555595    1.3610302873    0.0358978246
H         0.1400538454    1.8737465506   -0.2114863691
O        -1.2145784868    0.1862517434    2.0046042293
O        -2.1040940641    1.1019168681    1.9304935257
H        -2.0845900376   -1.6251677360   -0.0954806277
$end

$rem
BASIS = 6-311++G**
JOB_TYPE = SP
METHOD = wB97M-V
SCF_ALGORITHM = DIIS_GDM
MAX_SCF_CYCLES = 400
SCF_CONVERGENCE = 7
THRESH = 12
Solvent_method = SMD
$end
--------------------------------------------------------------

             Standard Nuclear Orientation (Angstroms)
    I     Atom           X                Y                Z
 ----------------------------------------------------------------
    1      C       0.6072589961     0.0995536333     0.2712972596
    2      O       1.4192510827    -0.7394525853     0.5581470688
    3      H      -2.1260616732     1.1525978741     0.6669314370
    4      C      -0.8871968854    -0.2005200305     0.1817492238
    5      O      -1.1409735157    -1.4918035736     0.0903525274
    6      O      -1.6789620209     0.6859210684    -0.2986863993
    7      O       0.9279555595     1.3610302873     0.0358978246
    8      H       0.1400538454     1.8737465506    -0.2114863691
    9      O      -1.2145784868     0.1862517434     2.0046042293
   10      O      -2.1040940641     1.1019168681     1.9304935257
   11      H      -2.0845900376    -1.6251677360    -0.0954806277
 ----------------------------------------------------------------

   21    -529.2750041226      5.59e-08  Convergence criterion met
 Total energy in the final basis set =     -529.2676047406

                    Orbital Energies (a.u.)
 --------------------------------------------------------------

 Alpha MOs
 -- Occupied --
-19.4582 -19.4527 -19.4019 -19.4016 -19.3716 -19.3536 -10.5420 -10.5159
 -1.3772  -1.2847  -1.2576  -1.2003  -1.1798  -0.9815  -0.8505  -0.7586
 -0.7377  -0.7066  -0.6710  -0.6352  -0.6275  -0.6045  -0.5873  -0.5616
 -0.5349  -0.5178  -0.4965  -0.4741  -0.4537  -0.4240  -0.4080  -0.3976

 Beta MOs
 -- Occupied --
-19.4427 -19.4375 -19.4020 -19.4016 -19.3718 -19.3535 -10.5424 -10.5159
 -1.3500  -1.2831  -1.2573  -1.2000  -1.1797  -0.9433  -0.8469  -0.7586
 -0.7308  -0.7051  -0.6688  -0.6078  -0.6047  -0.5868  -0.5629  -0.5487
 -0.5247  -0.5165  -0.4906  -0.4723  -0.4534  -0.4157  -0.3865

          Ground-State Mulliken Net Atomic Charges

     Atom                 Charge (a.u.)    Spin (a.u.)
  --------------------------------------------------------
      1 C                     0.308205       0.002869
      2 O                    -0.346047       0.001353
      3 H                     0.418281      -0.011439
      4 C                    -0.260109      -0.029514
      5 O                    -0.170027      -0.004819
      6 O                    -0.307786      -0.000582
      7 O                    -0.198095      -0.001424
      8 H                     0.339947       0.000397
      9 O                    -0.081151       0.521634
     10 O                    -0.086144       0.520765
     11 H                     0.382926       0.000760
  --------------------------------------------------------
  Sum of atomic charges =     0.000000

                    Cartesian Multipole Moments
 -----------------------------------------------------------------
    Charge (ESU x 10^10)
                 0.0000
    Dipole Moment (Debye)
         X      -5.3782      Y       1.8199      Z      -2.4905
       Tot       6.2000
    Quadrupole Moments (Debye-Ang)
        XX     -45.3427     XY       5.2094     YY     -42.3717
        XZ      -0.0809     YZ       0.8549     ZZ     -51.4177

 Total job time:  76.98s(wall), 295.29s(cpu)
        *  Thank you very much for using Q-Chem.  Have a nice day.  *
