 Q-Chem 5.4, Q-Chem, Inc., Pleasanton, CA (2021)
 Q-Chem 5.4.1 for Intel X86 EM64T Linux

User input:
--------------------------------------------------------------
$molecule
-1 2
C         1.4980164545    0.7660547243   -0.1383624944
O         1.8026323618    1.4121745551    0.8766832452
O         1.9798924524    0.8168866210   -1.2928620119
C         0.3676719600   -0.2762671958    0.0083766160
O        -0.0592124773   -0.7989272362   -1.1237456197
O        -0.4187979559   -0.3089060280    1.0215964248
H         0.0738809553   -1.0384616266    1.7114023966
O         1.5892850633   -1.6572546214    0.7212176276
O         1.0518619496   -1.9085083887    1.8610669549
H         0.5714289363   -0.4987389036   -1.8095437390
$end

$rem
BASIS = 6-311++G(3df,2p)
JOB_TYPE = SP
METHOD = wB97M-V
SCF_ALGORITHM = DIIS_GDM
MAX_SCF_CYCLES = 400
SCF_CONVERGENCE = 7
THRESH = 12
Solvent_method = SMD
$end
--------------------------------------------------------------

             Standard Nuclear Orientation (Angstroms)
    I     Atom           X                Y                Z
 ----------------------------------------------------------------
    1      C       1.4980164545     0.7660547243    -0.1383624944
    2      O       1.8026323618     1.4121745551     0.8766832452
    3      O       1.9798924524     0.8168866210    -1.2928620119
    4      C       0.3676719600    -0.2762671958     0.0083766160
    5      O      -0.0592124773    -0.7989272362    -1.1237456197
    6      O      -0.4187979559    -0.3089060280     1.0215964248
    7      H       0.0738809553    -1.0384616266     1.7114023966
    8      O       1.5892850633    -1.6572546214     0.7212176276
    9      O       1.0518619496    -1.9085083887     1.8610669549
   10      H       0.5714289363    -0.4987389036    -1.8095437390
 ----------------------------------------------------------------

   21    -528.8724963015      6.87e-08  Convergence criterion met
 Total energy in the final basis set =     -528.8653331066

                    Orbital Energies (a.u.)
 --------------------------------------------------------------

 Alpha MOs
 -- Occupied --
-19.4286 -19.4252 -19.3861 -19.3546 -19.3034 -19.3005 -10.5100 -10.4589
 -1.3385  -1.2564  -1.1837  -1.1785  -1.0998  -0.9506  -0.7909  -0.7332
 -0.6984  -0.6224  -0.6103  -0.6052  -0.6009  -0.5496  -0.5440  -0.5271
 -0.5104  -0.4813  -0.4598  -0.3962  -0.3861  -0.3843  -0.3752  -0.3618

 Beta MOs
 -- Occupied --
-19.4128 -19.4104 -19.3862 -19.3547 -19.3033 -19.3004 -10.5103 -10.4589
 -1.3117  -1.2545  -1.1837  -1.1782  -1.0997  -0.9104  -0.7888  -0.7319
 -0.6929  -0.6207  -0.6044  -0.5817  -0.5497  -0.5414  -0.5347  -0.5192
 -0.5010  -0.4755  -0.4581  -0.3874  -0.3835  -0.3754  -0.3518

          Ground-State Mulliken Net Atomic Charges

     Atom                 Charge (a.u.)    Spin (a.u.)
  --------------------------------------------------------
      1 C                     1.086960      -0.005413
      2 O                    -0.843688       0.000846
      3 O                    -0.829209      -0.000223
      4 C                     0.837768      -0.014672
      5 O                    -0.642520      -0.002689
      6 O                    -0.821427      -0.003007
      7 H                     0.420252      -0.007922
      8 O                    -0.272528       0.535777
      9 O                    -0.298233       0.497041
     10 H                     0.362626       0.000262
  --------------------------------------------------------
  Sum of atomic charges =    -1.000000

                    Cartesian Multipole Moments
 -----------------------------------------------------------------
    Charge (ESU x 10^10)
                -4.8032
    Dipole Moment (Debye)
         X      -8.3436      Y      -2.9034      Z      -2.3269
       Tot       9.1356
    Quadrupole Moments (Debye-Ang)
        XX     -68.6727     XY      -8.1122     YY     -59.9075
        XZ      -1.3974     YZ       1.2155     ZZ     -52.8691

 Total job time:  247.12s(wall), 981.47s(cpu)
        *  Thank you very much for using Q-Chem.  Have a nice day.  *
