 Q-Chem 5.4, Q-Chem, Inc., Pleasanton, CA (2021)
 Q-Chem 5.4.1 for Intel X86 EM64T Linux

User input:
--------------------------------------------------------------
$molecule
-1 2
C         1.4980164545    0.7660547243   -0.1383624944
O         1.8026323618    1.4121745551    0.8766832452
O         1.9798924524    0.8168866210   -1.2928620119
C         0.3676719600   -0.2762671958    0.0083766160
O        -0.0592124773   -0.7989272362   -1.1237456197
O        -0.4187979559   -0.3089060280    1.0215964248
H         0.0738809553   -1.0384616266    1.7114023966
O         1.5892850633   -1.6572546214    0.7212176276
O         1.0518619496   -1.9085083887    1.8610669549
H         0.5714289363   -0.4987389036   -1.8095437390
$end

$rem
BASIS = def2-TZVPD
JOB_TYPE = SP
METHOD = wB97M-V
SCF_ALGORITHM = DIIS_GDM
MAX_SCF_CYCLES = 400
SCF_CONVERGENCE = 7
THRESH = 12
Solvent_method = SMD
$end
--------------------------------------------------------------

             Standard Nuclear Orientation (Angstroms)
    I     Atom           X                Y                Z
 ----------------------------------------------------------------
    1      C       1.4980164545     0.7660547243    -0.1383624944
    2      O       1.8026323618     1.4121745551     0.8766832452
    3      O       1.9798924524     0.8168866210    -1.2928620119
    4      C       0.3676719600    -0.2762671958     0.0083766160
    5      O      -0.0592124773    -0.7989272362    -1.1237456197
    6      O      -0.4187979559    -0.3089060280     1.0215964248
    7      H       0.0738809553    -1.0384616266     1.7114023966
    8      O       1.5892850633    -1.6572546214     0.7212176276
    9      O       1.0518619496    -1.9085083887     1.8610669549
   10      H       0.5714289363    -0.4987389036    -1.8095437390
 ----------------------------------------------------------------

   22    -528.9017345441      5.20e-08  Convergence criterion met
 Total energy in the final basis set =     -528.8945713492

                    Orbital Energies (a.u.)
 --------------------------------------------------------------

 Alpha MOs
 -- Occupied --
-19.4265 -19.4232 -19.3844 -19.3528 -19.3013 -19.2984 -10.5092 -10.4580
 -1.3359  -1.2545  -1.1821  -1.1765  -1.0981  -0.9482  -0.7891  -0.7316
 -0.6966  -0.6207  -0.6086  -0.6036  -0.5992  -0.5481  -0.5426  -0.5257
 -0.5089  -0.4796  -0.4583  -0.3945  -0.3847  -0.3826  -0.3738  -0.3602

 Beta MOs
 -- Occupied --
-19.4108 -19.4085 -19.3845 -19.3529 -19.3013 -19.2984 -10.5095 -10.4580
 -1.3092  -1.2526  -1.1821  -1.1762  -1.0981  -0.9081  -0.7870  -0.7303
 -0.6912  -0.6190  -0.6029  -0.5798  -0.5483  -0.5400  -0.5332  -0.5176
 -0.4995  -0.4738  -0.4566  -0.3860  -0.3819  -0.3740  -0.3500

          Ground-State Mulliken Net Atomic Charges

     Atom                 Charge (a.u.)    Spin (a.u.)
  --------------------------------------------------------
      1 C                     0.765490      -0.000235
      2 O                    -0.799854       0.000346
      3 O                    -0.850330       0.000037
      4 C                     0.718227      -0.006463
      5 O                    -0.516357      -0.004867
      6 O                    -0.646347      -0.000244
      7 H                     0.416473      -0.015152
      8 O                    -0.215276       0.522660
      9 O                    -0.283053       0.503955
     10 H                     0.411027      -0.000039
  --------------------------------------------------------
  Sum of atomic charges =    -1.000000

                    Cartesian Multipole Moments
 -----------------------------------------------------------------
    Charge (ESU x 10^10)
                -4.8032
    Dipole Moment (Debye)
         X      -8.3441      Y      -2.9225      Z      -2.3192
       Tot       9.1402
    Quadrupole Moments (Debye-Ang)
        XX     -68.6079     XY      -8.0970     YY     -59.8116
        XZ      -1.3657     YZ       1.2596     ZZ     -52.8058

 Total job time:  460.26s(wall), 1831.28s(cpu)
        *  Thank you very much for using Q-Chem.  Have a nice day.  *
