 Q-Chem 5.4, Q-Chem, Inc., Pleasanton, CA (2021)
 Q-Chem 5.4.1 for Intel X86 EM64T Linux

User input:
--------------------------------------------------------------
$molecule
0 2
C         0.5259361465    0.2043921395    0.4740676009
O         1.2874533448   -0.5711169147    0.9869908096
H        -2.5875831013    0.7760436896   -0.2342908893
C        -0.9933530291   -0.0778802264    0.4538855820
O        -1.1924198531   -1.3245821325   -0.0584423260
O        -1.6382660789    0.9534424243   -0.1592693111
O         0.9252740252    1.3236119123   -0.1025326688
H         0.1686586019    1.8175050908   -0.4603742573
O        -1.4339563021   -0.1633635542    1.8680049276
O        -1.1076507085    0.9154251556    2.5200574009
H        -2.1404694451   -1.4927940843   -0.1674083686
$end

$rem
BASIS = 6-311++G**
JOB_TYPE = SP
METHOD = wB97M-V
SCF_ALGORITHM = DIIS_GDM
MAX_SCF_CYCLES = 400
SCF_CONVERGENCE = 7
THRESH = 12
Solvent_method = SMD
$end
--------------------------------------------------------------

             Standard Nuclear Orientation (Angstroms)
    I     Atom           X                Y                Z
 ----------------------------------------------------------------
    1      C       0.5259361465     0.2043921395     0.4740676009
    2      O       1.2874533448    -0.5711169147     0.9869908096
    3      H      -2.5875831013     0.7760436896    -0.2342908893
    4      C      -0.9933530291    -0.0778802264     0.4538855820
    5      O      -1.1924198531    -1.3245821325    -0.0584423260
    6      O      -1.6382660789     0.9534424243    -0.1592693111
    7      O       0.9252740252     1.3236119123    -0.1025326688
    8      H       0.1686586019     1.8175050908    -0.4603742573
    9      O      -1.4339563021    -0.1633635542     1.8680049276
   10      O      -1.1076507085     0.9154251556     2.5200574009
   11      H      -2.1404694451    -1.4927940843    -0.1674083686
 ----------------------------------------------------------------

   22    -529.2882422386      7.19e-08  Convergence criterion met
 Total energy in the final basis set =     -529.2815330319

                    Orbital Energies (a.u.)
 --------------------------------------------------------------

 Alpha MOs
 -- Occupied --
-19.4747 -19.4349 -19.4021 -19.3877 -19.3834 -19.3529 -10.5502 -10.5157
 -1.3720  -1.2782  -1.2493  -1.1970  -1.1782  -1.0157  -0.8645  -0.7587
 -0.7222  -0.7138  -0.6934  -0.6278  -0.6181  -0.6016  -0.5785  -0.5756
 -0.5344  -0.5094  -0.4977  -0.4555  -0.4515  -0.4307  -0.4163  -0.4075

 Beta MOs
 -- Occupied --
-19.4651 -19.4154 -19.4020 -19.3875 -19.3835 -19.3530 -10.5505 -10.5156
 -1.3487  -1.2757  -1.2472  -1.1969  -1.1781  -0.9814  -0.8594  -0.7582
 -0.7201  -0.7005  -0.6877  -0.6043  -0.6008  -0.5849  -0.5758  -0.5525
 -0.5319  -0.4992  -0.4905  -0.4534  -0.4504  -0.4237  -0.3948

          Ground-State Mulliken Net Atomic Charges

     Atom                 Charge (a.u.)    Spin (a.u.)
  --------------------------------------------------------
      1 C                     0.177660       0.016795
      2 O                    -0.348206      -0.002740
      3 H                     0.399299       0.000518
      4 C                    -0.099677      -0.009622
      5 O                    -0.254864      -0.000382
      6 O                    -0.299842      -0.001804
      7 O                    -0.177317       0.000734
      8 H                     0.335464       0.000016
      9 O                     0.042422       0.290537
     10 O                    -0.146753       0.706775
     11 H                     0.371816      -0.000827
  --------------------------------------------------------
  Sum of atomic charges =     0.000000

                    Cartesian Multipole Moments
 -----------------------------------------------------------------
    Charge (ESU x 10^10)
                 0.0000
    Dipole Moment (Debye)
         X      -7.5834      Y       1.4202      Z      -4.6590
       Tot       9.0128
    Quadrupole Moments (Debye-Ang)
        XX     -34.7053     XY       3.1358     YY     -45.3780
        XZ       2.1447     YZ      -1.2224     ZZ     -54.3599

 Total job time:  79.93s(wall), 307.21s(cpu)
        *  Thank you very much for using Q-Chem.  Have a nice day.  *
