 Q-Chem 5.4, Q-Chem, Inc., Pleasanton, CA (2021)
 Q-Chem 5.4.1 for Intel X86 EM64T Linux

User input:
--------------------------------------------------------------
$molecule
-1 2
O   -0.4268954    1.0291152    0.2121394
C   -0.6392513   -0.1715734    0.4605697
O   -1.2753298   -1.0208365   -0.1973000
H   -0.1844583   -0.5559033    1.4359004
O   -0.2128196   -2.1505383    2.2090421
H   -0.7380683   -2.3443676    1.4097700
$end

$rem
BASIS = 6-311++G(2df,2p)
GUI = 2
JOB_TYPE = Frequency
METHOD = wB97M-V
SOLVENT_METHOD = SMD
SCF_ALGORITHM = DIIS_GDM
MAX_SCF_CYCLES = 400
SCF_CONVERGENCE = 7
THRESH = 12
$end

--------------------------------------------------------------

   25    -265.0843485761      8.92e-08  Convergence criterion met
 Total energy in the final basis set =     -265.0776125487
   20    -265.0843478801      8.38e-08  Convergence criterion met
 Total energy in the final basis set =     -265.0776124934
   22    -265.0843490598      5.29e-08  Convergence criterion met
 Total energy in the final basis set =     -265.0776123957
   18    -265.0843438687      4.80e-08  Convergence criterion met
 Total energy in the final basis set =     -265.0776114725
   18    -265.0843511558      3.59e-08  Convergence criterion met
 Total energy in the final basis set =     -265.0776115366
   22    -265.0843492147      8.17e-08  Convergence criterion met
 Total energy in the final basis set =     -265.0776124423
   22    -265.0843476455      8.09e-08  Convergence criterion met
 Total energy in the final basis set =     -265.0776123675
   22    -265.0843471510      5.61e-08  Convergence criterion met
 Frequency:      -283.28                 112.44                 143.98
 Force Cnst:      0.2734                 0.0145                 0.0792
 Red. Mass:       5.7835                 1.9503                 6.4871
 IR Intens:      313.889                 14.454                119.474
 Frequency:       336.07                 626.90                 733.96
 Force Cnst:      0.0732                 0.2727                 3.1437
 Red. Mass:       1.1005                 1.1779                 9.9050
 IR Intens:      227.293                229.381                257.861
 Frequency:      1040.59                1210.72                1387.36
 Force Cnst:      1.1376                 1.7164                 2.4093
 Red. Mass:       1.7831                 1.9874                 2.1245
 IR Intens:        0.470               2060.111                 17.429
 Frequency:      1586.30                2307.97                3656.75
 Force Cnst:     16.6596                 3.2937                 8.4121
 Red. Mass:      11.2369                 1.0495                 1.0677
 IR Intens:     1633.449               4002.078                 96.430

 STANDARD THERMODYNAMIC QUANTITIES AT   298.15 K  AND     1.00 ATM

   This Molecule has  1 Imaginary Frequencies
   Zero point vibrational energy:       18.789 kcal/mol

   Atom    1 Element O  Has Mass   15.99491
   Atom    2 Element C  Has Mass   12.00000
   Atom    3 Element O  Has Mass   15.99491
   Atom    4 Element H  Has Mass    1.00783
   Atom    5 Element O  Has Mass   15.99491
   Atom    6 Element H  Has Mass    1.00783
   Molecular Mass:    62.000390 amu
   Principal axes and moments of inertia in amu*Bohr^2:
                             1           2           3
    Eigenvalues --      112.86323   437.45153   550.31465
          X              -0.09742     0.53819     0.83717
          Y               0.80774     0.53419    -0.24941
          Z              -0.58144     0.65192    -0.48676
   Rotational Symmetry Number is   1
   The Molecule is an Asymmetric Top
   Translational Enthalpy:        0.889 kcal/mol
   Rotational Enthalpy:           0.889 kcal/mol
   Vibrational Enthalpy:         20.073 kcal/mol
   gas constant (RT):             0.592 kcal/mol
   Translational Entropy:        38.293  cal/mol.K
   Rotational Entropy:           24.811  cal/mol.K
   Vibrational Entropy:           8.028  cal/mol.K

   Total Enthalpy:               22.443 kcal/mol
   Total Entropy:                71.131  cal/mol.K
 Total job time:  964.39s(wall), 7412.38s(cpu)
        *  Thank you very much for using Q-Chem.  Have a nice day.  *
 Q-Chem 5.4, Q-Chem, Inc., Pleasanton, CA (2021)
 Q-Chem 5.4.1 for Intel X86 EM64T Linux

User input:
--------------------------------------------------------------

$molecule
read
$end

$rem
JOBTYPE            rpath
SCF_GUESS          read
RPATH_MAX_CYCLES   30
BASIS = 6-311++G(2df,2p)
METHOD = wB97M-V
SOLVENT_METHOD = SMD
SCF_ALGORITHM = DIIS_GDM
SCF_CONVERGENCE = 7
THRESH = 12
$end
--------------------------------------------------------------

 Total energy in the final basis set =     -265.0776125486
   22    -265.0844811671      9.26e-08  Convergence criterion met
 Total energy in the final basis set =     -265.0778126765
   22    -265.0828124555      3.16e-08  Convergence criterion met
 Total energy in the final basis set =     -265.0759937172
   23    -265.0844984372      6.42e-08  Convergence criterion met
 Total energy in the final basis set =     -265.0778199818
   23    -265.0836805448      4.57e-08  Convergence criterion met
 Total energy in the final basis set =     -265.0769939567
   22    -265.0845348506      4.79e-08  Convergence criterion met
 Total energy in the final basis set =     -265.0778548132
   17    -265.0845028817      5.70e-08  Convergence criterion met
 Total energy in the final basis set =     -265.0778399034
   23    -265.0845483739      4.15e-08  Convergence criterion met
 Total energy in the final basis set =     -265.0778756349

                    Orbital Energies (a.u.)
 --------------------------------------------------------------

 Alpha MOs
 -- Occupied --
-19.3834 -19.2956 -19.2952 -10.4426  -1.1756  -1.1272  -1.0895  -0.6807
 -0.5911  -0.5677  -0.5412  -0.5224  -0.4976  -0.4512  -0.3799  -0.3743
 -0.3574

 Beta MOs
 -- Occupied --
-19.3603 -19.2949 -19.2943 -10.4413  -1.1734  -1.0893  -1.0622  -0.6702
 -0.5796  -0.5459  -0.5376  -0.5211  -0.4214  -0.3791  -0.3712  -0.3613

          Ground-State Mulliken Net Atomic Charges

     Atom                 Charge (a.u.)    Spin (a.u.)
  --------------------------------------------------------
      1 O                    -0.630747       0.036995
      2 C                     0.190710       0.059870
      3 O                    -0.608754       0.016091
      4 H                     0.133238      -0.012697
      5 O                    -0.404762       0.908714
      6 H                     0.320314      -0.008973
  --------------------------------------------------------
  Sum of atomic charges =    -1.000000

                    Cartesian Multipole Moments
 -----------------------------------------------------------------
    Charge (ESU x 10^10)
                -4.8032
    Dipole Moment (Debye)
         X       3.4544      Y       0.2245      Z      -1.2583
       Tot       3.6833
    Quadrupole Moments (Debye-Ang)
        XX     -30.2600     XY      -0.4418     YY     -34.2034
        XZ      -2.3107     YZ       3.8531     ZZ     -33.6323

             Standard Nuclear Orientation (Angstroms)
    I     Atom           X                Y                Z
 ----------------------------------------------------------------
    1      O      -0.4268954000     1.0291152000     0.2121394000
    2      C      -0.6392513000    -0.1715734000     0.4605697000
    3      O      -1.2753298000    -1.0208365000    -0.1973000000
    4      H      -0.1844583000    -0.5559033000     1.4359004000
    5      O      -0.2128196000    -2.1505383000     2.2090421000
    6      H      -0.7380683000    -2.3443676000     1.4097700000
 ----------------------------------------------------------------

 Total job time:  1908.75s(wall), 14611.51s(cpu)
        *  Thank you very much for using Q-Chem.  Have a nice day.  *
