 Q-Chem 5.4, Q-Chem, Inc., Pleasanton, CA (2021)
 Q-Chem 5.4.1 for Intel X86 EM64T Linux

User input:
--------------------------------------------------------------
$molecule
-1 2
O   -0.2779840    0.9808736    0.4617916
C   -0.6900011   -0.1620969    0.3527143
O   -1.4087758   -0.5160551   -0.7294780
H   -0.4122997   -0.9727942    1.2992235
O   -0.1226248   -1.8320755    2.1286212
H   -0.5651373   -2.7119559    2.0172490
$end

$rem
BASIS = 6-311++G(2df,2p)
GUI = 2
JOB_TYPE = Frequency
METHOD = wB97M-V
SCF_ALGORITHM = DIIS_GDM
MAX_SCF_CYCLES = 400
SCF_CONVERGENCE = 6
THRESH = 11
SYMMETRY_IGNORE = 1
solvent_method = SMD
$end

--------------------------------------------------------------

   17    -265.0812603040      6.10e-07  Convergence criterion met
 Total energy in the final basis set =     -265.0742284579
   16    -265.0812890800      8.58e-07  Convergence criterion met
 Total energy in the final basis set =     -265.0742584124
   16    -265.0812310956      8.30e-07  Convergence criterion met
 Total energy in the final basis set =     -265.0741980762
   16    -265.0812432132      8.65e-07  Convergence criterion met
 Total energy in the final basis set =     -265.0742139699
   16    -265.0812752198      8.37e-07  Convergence criterion met
 Total energy in the final basis set =     -265.0742407992
   16    -265.0813186782      8.52e-07  Convergence criterion met
 Total energy in the final basis set =     -265.0742875104
   16    -265.0812016395      8.41e-07  Convergence criterion met
 Total energy in the final basis set =     -265.0741691166
   16    -265.0811509277      8.35e-07  Convergence criterion met
 Frequency:      -965.95                 237.36                 419.28
 Force Cnst:      0.5832                 0.3208                 0.5298
 Red. Mass:       1.0609                 9.6634                 5.1151
 IR Intens:      176.376                  6.279                 49.652
 Frequency:       461.28                 578.77                 763.48
 Force Cnst:      0.2108                 0.3878                 0.9669
 Red. Mass:       1.6816                 1.9649                 2.8153
 IR Intens:      264.715                 12.554                108.294
 Frequency:       813.44                 867.32                 969.60
 Force Cnst:      0.8032                 1.8407                 0.7122
 Red. Mass:       2.0603                 4.1531                 1.2857
 IR Intens:      183.771                786.042                 47.012
 Frequency:      1327.08                1565.93                3487.53
 Force Cnst:      1.1023                18.0587                 7.6520
 Red. Mass:       1.0624                12.4995                 1.0678
 IR Intens:       84.833                992.984                215.370

 STANDARD THERMODYNAMIC QUANTITIES AT   298.15 K  AND     1.00 ATM

   This Molecule has  1 Imaginary Frequencies
   Zero point vibrational energy:       16.427 kcal/mol

   Atom    1 Element O  Has Mass   15.99491
   Atom    2 Element C  Has Mass   12.00000
   Atom    3 Element O  Has Mass   15.99491
   Atom    4 Element H  Has Mass    1.00783
   Atom    5 Element O  Has Mass   15.99491
   Atom    6 Element H  Has Mass    1.00783
   Molecular Mass:    62.000390 amu
   Principal axes and moments of inertia in amu*Bohr^2:
                             1           2           3
    Eigenvalues --      143.56858   409.56507   553.04393
          X               0.22714     0.49777     0.83703
          Y              -0.65588     0.71354    -0.24635
          Z               0.71988     0.49303    -0.48855
   Rotational Symmetry Number is   1
   The Molecule is an Asymmetric Top
   Translational Enthalpy:        0.889 kcal/mol
   Rotational Enthalpy:           0.889 kcal/mol
   Vibrational Enthalpy:         17.370 kcal/mol
   gas constant (RT):             0.592 kcal/mol
   Translational Entropy:        38.293  cal/mol.K
   Rotational Entropy:           24.989  cal/mol.K
   Vibrational Entropy:           4.701  cal/mol.K

   Total Enthalpy:               19.740 kcal/mol
   Total Entropy:                67.983  cal/mol.K
 Total job time:  1121.75s(wall), 4332.52s(cpu)
        *  Thank you very much for using Q-Chem.  Have a nice day.  *
 Q-Chem 5.4, Q-Chem, Inc., Pleasanton, CA (2021)
 Q-Chem 5.4.1 for Intel X86 EM64T Linux

User input:
--------------------------------------------------------------

$rem
JOBTYPE = ts
SCF_GUESS = read
GEOM_OPT_HESSIAN = read
MAX_SCF_CYCLES = 350
GEOM_OPT_DMAX = 60
GEOM_OPT_MAX_CYCLES = 250
METHOD = wB97M-v
BASIS = 6-311++G(2df,2p)
SCF_CONVERGENCE = 7
THRESH = 12
SCF_ALGORITHM = DIIS_GDM
solvent_method = SMD
$end

$molecule
read
$end
--------------------------------------------------------------

   22    -265.0843608873      4.54e-08  Convergence criterion met
 Total energy in the final basis set =     -265.0776080563
   22    -265.0843586188      4.78e-08  Convergence criterion met
 Total energy in the final basis set =     -265.0776085722
   22    -265.0843471935      4.55e-08  Convergence criterion met
 Total energy in the final basis set =     -265.0776109596
   22    -265.0843501271      4.95e-08  Convergence criterion met
 Total energy in the final basis set =     -265.0776120099
   22    -265.0843456654      4.73e-08  Convergence criterion met
 Total energy in the final basis set =     -265.0776110344
   22    -265.0843503995      4.56e-08  Convergence criterion met
 Total energy in the final basis set =     -265.0776125454

             Standard Nuclear Orientation (Angstroms)
    I     Atom           X                Y                Z
 ----------------------------------------------------------------
    1      O      -0.4268954293     1.0291151830     0.2121393846
    2      C      -0.6392512660    -0.1715733849     0.4605697353
    3      O      -1.2753297665    -1.0208365483    -0.1972999674
    4      H      -0.1844583358    -0.5559032743     1.4359003813
    5      O      -0.2128195719    -2.1505383457     2.2090421018
    6      H      -0.7380683304    -2.3443676297     1.4097699644
 ----------------------------------------------------------------

   22    -265.0843485761      5.15e-08  Convergence criterion met
 Total energy in the final basis set =     -265.0776125486
 Final energy is   -265.077612548627
 **  OPTIMIZATION CONVERGED  **

                    Orbital Energies (a.u.)
 --------------------------------------------------------------

 Alpha MOs
 -- Occupied --
-19.3756 -19.3000 -19.2981 -10.4462  -1.1801  -1.1218  -1.0945  -0.6828
 -0.5899  -0.5679  -0.5450  -0.5262  -0.4900  -0.4457  -0.3830  -0.3779
 -0.3552

 Beta MOs
 -- Occupied --
-19.3535 -19.2981 -19.2975 -10.4443  -1.1770  -1.0933  -1.0614  -0.6686
 -0.5799  -0.5449  -0.5396  -0.5243  -0.4174  -0.3816  -0.3729  -0.3619

          Ground-State Mulliken Net Atomic Charges

     Atom                 Charge (a.u.)    Spin (a.u.)
  --------------------------------------------------------
      1 O                    -0.612631       0.056603
      2 C                     0.192663       0.085385
      3 O                    -0.596563       0.028166
      4 H                     0.140640      -0.012432
      5 O                    -0.443070       0.851347
      6 H                     0.318962      -0.009068
  --------------------------------------------------------
  Sum of atomic charges =    -1.000000

                    Cartesian Multipole Moments
 -----------------------------------------------------------------
    Charge (ESU x 10^10)
                -4.8032
    Dipole Moment (Debye)
         X       3.3036      Y       0.4696      Z      -1.6329
       Tot       3.7149
    Quadrupole Moments (Debye-Ang)
        XX     -30.1156     XY      -0.4650     YY     -34.1584
        XZ      -2.3173     YZ       4.1479     ZZ     -34.3166

 Total job time:  2775.18s(wall), 10746.58s(cpu)
        *  Thank you very much for using Q-Chem.  Have a nice day.  *
