 Q-Chem 5.4, Q-Chem, Inc., Pleasanton, CA (2021)
 Q-Chem 5.4.1 for Intel X86 EM64T Linux

User input:
--------------------------------------------------------------
$molecule
0 2
C         0.6072589961    0.0995536333    0.2712972596
O         1.4192510827   -0.7394525853    0.5581470688
H        -2.1260616732    1.1525978741    0.6669314370
C        -0.8871968854   -0.2005200305    0.1817492238
O        -1.1409735157   -1.4918035736    0.0903525274
O        -1.6789620209    0.6859210684   -0.2986863993
O         0.9279555595    1.3610302873    0.0358978246
H         0.1400538454    1.8737465506   -0.2114863691
O        -1.2145784868    0.1862517434    2.0046042293
O        -2.1040940641    1.1019168681    1.9304935257
H        -2.0845900376   -1.6251677360   -0.0954806277
$end

$rem
BASIS = 6-31G(d)
JOB_TYPE = SP
METHOD = wB97M-V
SCF_ALGORITHM = DIIS_GDM
MAX_SCF_CYCLES = 400
SCF_CONVERGENCE = 7
THRESH = 12
Solvent_method = SMD
$end
--------------------------------------------------------------

             Standard Nuclear Orientation (Angstroms)
    I     Atom           X                Y                Z
 ----------------------------------------------------------------
    1      C       0.6072589961     0.0995536333     0.2712972596
    2      O       1.4192510827    -0.7394525853     0.5581470688
    3      H      -2.1260616732     1.1525978741     0.6669314370
    4      C      -0.8871968854    -0.2005200305     0.1817492238
    5      O      -1.1409735157    -1.4918035736     0.0903525274
    6      O      -1.6789620209     0.6859210684    -0.2986863993
    7      O       0.9279555595     1.3610302873     0.0358978246
    8      H       0.1400538454     1.8737465506    -0.2114863691
    9      O      -1.2145784868     0.1862517434     2.0046042293
   10      O      -2.1040940641     1.1019168681     1.9304935257
   11      H      -2.0845900376    -1.6251677360    -0.0954806277
 ----------------------------------------------------------------

   21    -529.0885861027      4.90e-08  Convergence criterion met
 Total energy in the final basis set =     -529.0811867207

                    Orbital Energies (a.u.)
 --------------------------------------------------------------

 Alpha MOs
 -- Occupied --
-19.4713 -19.4666 -19.4145 -19.4127 -19.3838 -19.3636 -10.5413 -10.5157
 -1.3630  -1.2712  -1.2442  -1.1864  -1.1655  -0.9695  -0.8378  -0.7459
 -0.7255  -0.6935  -0.6576  -0.6220  -0.6146  -0.5874  -0.5733  -0.5485
 -0.5217  -0.5038  -0.4830  -0.4594  -0.4376  -0.4081  -0.3935  -0.3820

 Beta MOs
 -- Occupied --
-19.4563 -19.4519 -19.4146 -19.4127 -19.3839 -19.3636 -10.5417 -10.5157
 -1.3360  -1.2696  -1.2439  -1.1862  -1.1654  -0.9316  -0.8343  -0.7458
 -0.7186  -0.6920  -0.6554  -0.5949  -0.5876  -0.5729  -0.5496  -0.5367
 -0.5121  -0.5028  -0.4771  -0.4580  -0.4373  -0.3995  -0.3714

          Ground-State Mulliken Net Atomic Charges

     Atom                 Charge (a.u.)    Spin (a.u.)
  --------------------------------------------------------
      1 C                     0.632863       0.000172
      2 O                    -0.498712       0.001160
      3 H                     0.511577      -0.010787
      4 C                     0.569681      -0.023258
      5 O                    -0.564499      -0.003971
      6 O                    -0.640216      -0.002572
      7 O                    -0.585648       0.000515
      8 H                     0.489240      -0.000091
      9 O                    -0.182603       0.521657
     10 O                    -0.222677       0.516768
     11 H                     0.490995       0.000408
  --------------------------------------------------------
  Sum of atomic charges =     0.000000

                    Cartesian Multipole Moments
 -----------------------------------------------------------------
    Charge (ESU x 10^10)
                 0.0000
    Dipole Moment (Debye)
         X      -5.1134      Y       1.6192      Z      -2.3043
       Tot       5.8377
    Quadrupole Moments (Debye-Ang)
        XX     -43.3420     XY       4.9351     YY     -40.5251
        XZ      -0.0294     YZ       0.7315     ZZ     -49.1949

 Total job time:  43.47s(wall), 163.91s(cpu)
        *  Thank you very much for using Q-Chem.  Have a nice day.  *
