 Q-Chem 5.4, Q-Chem, Inc., Pleasanton, CA (2021)
 Q-Chem 5.4.1 for Intel X86 EM64T Linux

User input:
--------------------------------------------------------------
$molecule
-1 2
C         0.6332016938    0.2492218888    0.7584201423
O         1.4025855345   -0.2466265649    1.5928966321
H        -1.9375709960   -1.0123331655   -0.8866207339
C        -0.5876356319   -0.6521105713    0.4044916578
O        -0.8569532521   -1.6133086963    1.1906387653
O        -1.1874161180   -0.4200235349   -0.6924266891
O         0.6788790895    1.3139223991    0.1285257991
O        -1.4798178908    1.1120009332    2.5219901422
O        -2.4778756125    0.8597842175    1.6870392901
H        -1.6207131163   -2.1609506057    0.9312915941
$end

$rem
BASIS = def2-QZVP
JOB_TYPE = SP
METHOD = wB97M-V
SCF_ALGORITHM = DIIS_GDM
MAX_SCF_CYCLES = 400
SCF_CONVERGENCE = 7
THRESH = 12
Solvent_method = SMD
$end
--------------------------------------------------------------

             Standard Nuclear Orientation (Angstroms)
    I     Atom           X                Y                Z
 ----------------------------------------------------------------
    1      C       0.6332016938     0.2492218888     0.7584201423
    2      O       1.4025855345    -0.2466265649     1.5928966321
    3      H      -1.9375709960    -1.0123331655    -0.8866207339
    4      C      -0.5876356319    -0.6521105713     0.4044916578
    5      O      -0.8569532521    -1.6133086963     1.1906387653
    6      O      -1.1874161180    -0.4200235349    -0.6924266891
    7      O       0.6788790895     1.3139223991     0.1285257991
    8      O      -1.4798178908     1.1120009332     2.5219901422
    9      O      -2.4778756125     0.8597842175     1.6870392901
   10      H      -1.6207131163    -2.1609506057     0.9312915941
 ----------------------------------------------------------------

   28    -528.8991902345      8.38e-08  Convergence criterion met
 Total energy in the final basis set =     -528.8910402324

                    Orbital Energies (a.u.)
 --------------------------------------------------------------

 Alpha MOs
 -- Occupied --
-19.4347 -19.4344 -19.3314 -19.3312 -19.3022 -19.3020 -10.5483 -10.4729
 -1.3227  -1.2417  -1.2121  -1.1928  -1.1086  -0.8664  -0.8610  -0.7726
 -0.7091  -0.6356  -0.6282  -0.5726  -0.5524  -0.5398  -0.5342  -0.5212
 -0.5168  -0.5025  -0.4879  -0.3913  -0.3877  -0.3823  -0.3212  -0.2899

 Beta MOs
 -- Occupied --
-19.4347 -19.4344 -19.3172 -19.3171 -19.3022 -19.3020 -10.5483 -10.4729
 -1.3227  -1.2417  -1.1931  -1.1827  -1.1086  -0.8663  -0.8187  -0.7726
 -0.7091  -0.6352  -0.6282  -0.5726  -0.5524  -0.5386  -0.5315  -0.5060
 -0.4960  -0.4735  -0.4338  -0.3910  -0.3874  -0.3821  -0.2709

          Ground-State Mulliken Net Atomic Charges

     Atom                 Charge (a.u.)    Spin (a.u.)
  --------------------------------------------------------
      1 C                     0.337735      -0.002501
      2 O                    -0.534906      -0.000154
      3 H                     0.369030       0.000304
      4 C                     0.359357      -0.000624
      5 O                    -0.222934      -0.000191
      6 O                    -0.217268      -0.000872
      7 O                    -0.532108       0.000699
      8 O                    -0.462546       0.505433
      9 O                    -0.465572       0.498121
     10 H                     0.369211      -0.000216
  --------------------------------------------------------
  Sum of atomic charges =    -1.000000

                    Cartesian Multipole Moments
 -----------------------------------------------------------------
    Charge (ESU x 10^10)
                -4.8032
    Dipole Moment (Debye)
         X      -2.3707      Y     -13.0679      Z     -13.1648
       Tot      18.7003
    Quadrupole Moments (Debye-Ang)
        XX     -60.7763     XY      18.5818     YY     -47.4599
        XZ      11.6328     YZ      -8.8484     ZZ     -74.1369

 Total job time:  1591.87s(wall), 6314.56s(cpu)
        *  Thank you very much for using Q-Chem.  Have a nice day.  *
