 Q-Chem 5.4, Q-Chem, Inc., Pleasanton, CA (2021)
 Q-Chem 5.4.1 for Intel X86 EM64T Linux

User input:
--------------------------------------------------------------
$molecule
0 2
O        -1.7005575682    1.7829465742    0.6678097587
H        -0.9876783031    2.4000545673    0.4231752626
$end

$rem
BASIS = 6-311++G(2df,2p)
GUI = 2
JOB_TYPE = Frequency
METHOD = wB97M-V
SOLVENT_METHOD = SMD
SCF_ALGORITHM = DIIS_GDM
MAX_SCF_CYCLES = 400
SCF_CONVERGENCE = 7
THRESH = 12
UNRESTRICTED = 1
SYMMETRY_IGNORE = 1
$end
--------------------------------------------------------------

   29     -75.7449525723      4.44e-08  Convergence criterion met
 Total energy in the final basis set =      -75.7437755848
   12     -75.7449514643      3.02e-08  Convergence criterion met
 Total energy in the final basis set =      -75.7437751011
   12     -75.7449527277      3.06e-08  Convergence criterion met
 Total energy in the final basis set =      -75.7437751160
   12     -75.7449517369      5.39e-08  Convergence criterion met
 Total energy in the final basis set =      -75.7437752897
   12     -75.7449526930      5.33e-08  Convergence criterion met
 Total energy in the final basis set =      -75.7437751650
   23     -75.7449526529      7.73e-08  Convergence criterion met
 Total energy in the final basis set =      -75.7437754509
   23     -75.7449523790      2.05e-08  Convergence criterion met
 Total energy in the final basis set =      -75.7437756054
   23     -75.7449527277      6.97e-08  Convergence criterion met
 Total energy in the final basis set =      -75.7437751160
   12     -75.7449514643      6.11e-08  Convergence criterion met
 Total energy in the final basis set =      -75.7437751011
   12     -75.7449526930      8.38e-08  Convergence criterion met
 Total energy in the final basis set =      -75.7437751650
   12     -75.7449517369      2.59e-08  Convergence criterion met
 Total energy in the final basis set =      -75.7437752897
   23     -75.7449523790      6.92e-08  Convergence criterion met
 Total energy in the final basis set =      -75.7437756054
   23     -75.7449526529      1.90e-08  Convergence criterion met
 Total energy in the final basis set =      -75.7437754509

                    Orbital Energies (a.u.)
 --------------------------------------------------------------

 Alpha MOs
 -- Occupied --
-19.4036  -1.1430  -0.5914  -0.5209  -0.4654

 Beta MOs
 -- Occupied --
-19.3790  -1.0716  -0.5615  -0.4330

          Ground-State Mulliken Net Atomic Charges

     Atom                 Charge (a.u.)    Spin (a.u.)
  --------------------------------------------------------
      1 O                    -0.339825       1.013722
      2 H                     0.339825      -0.013722
  --------------------------------------------------------
  Sum of atomic charges =     0.000000

                    Cartesian Multipole Moments
 -----------------------------------------------------------------
    Charge (ESU x 10^10)
                 0.0000
    Dipole Moment (Debye)
         X       1.5674      Y       1.3569      Z      -0.5400
       Tot       2.1424
    Quadrupole Moments (Debye-Ang)
        XX     -10.7459     XY       1.8729     YY      -1.0121
        XZ       1.7319     YZ      -0.3459     ZZ      -6.2585

             Standard Nuclear Orientation (Angstroms)
    I     Atom           X                Y                Z
 ----------------------------------------------------------------
    1      O      -1.7005575682     1.7829465742     0.6678097587
    2      H      -0.9876783031     2.4000545673     0.4231752626
 ----------------------------------------------------------------

 Frequency:      3726.88
 Force Cnst:      8.7326
 Red. Mass:       1.0671
 IR Intens:       83.252

 STANDARD THERMODYNAMIC QUANTITIES AT   298.15 K  AND     1.00 ATM

   This Molecule has  0 Imaginary Frequencies
   Zero point vibrational energy:        5.328 kcal/mol

 Q-Chem warning in module 0, line  397:

  SYM_IGNORE is turned on for a linear molecule

    We detect a C*h symmetry
   Atom    1 Element O  Has Mass   15.99491
   Atom    2 Element H  Has Mass    1.00783
   Molecular Mass:    17.002740 amu
   Principal axes and moments of inertia in amu*Bohr^2:
                             1           2           3
    Eigenvalues --       -0.00000     3.21257     3.21257
          X               0.73184    -0.49964     0.46344
          Y               0.63352     0.74941    -0.19247
          Z              -0.25114     0.43446     0.86497
   Rotational Symmetry Number is   1
   The Molecule is a Symmetric Top
   Translational Enthalpy:        0.889 kcal/mol
   Rotational Enthalpy:           0.889 kcal/mol
   Vibrational Enthalpy:          5.328 kcal/mol
   gas constant (RT):             0.592 kcal/mol
   Translational Entropy:        34.437  cal/mol.K
   Rotational Entropy:            6.763  cal/mol.K
   Vibrational Entropy:           0.000  cal/mol.K

   Total Enthalpy:                7.698 kcal/mol
   Total Entropy:                41.199  cal/mol.K
 Total job time:  82.08s(wall), 602.30s(cpu)
        *  Thank you very much for using Q-Chem.  Have a nice day.  *
