 Q-Chem 5.4, Q-Chem, Inc., Pleasanton, CA (2021)
 Q-Chem 5.4.1 for Intel X86 EM64T Linux

User input:
--------------------------------------------------------------
$molecule
0 2
O        -1.7014812471    1.7821469863    0.6681267320
H        -0.9867546242    2.4008541552    0.4228582893
$end

$rem
BASIS = 6-311++G(2df,2p)
GUI = 2
JOB_TYPE = Optimization
METHOD = wB97M-V
SCF_ALGORITHM = DIIS_GDM
MAX_SCF_CYCLES = 400
GEOM_OPT_MAX_CYCLES = 150
SCF_CONVERGENCE = 7
THRESH = 12
UNRESTRICTED = 1
Solvent_method = SMD
$end
--------------------------------------------------------------

   29     -75.7449489494      4.55e-08  Convergence criterion met
 Total energy in the final basis set =      -75.7437698117

             Standard Nuclear Orientation (Angstroms)
    I     Atom           X                Y                Z
 ----------------------------------------------------------------
    1      O      -1.7005575682     1.7829465742     0.6678097587
    2      H      -0.9876783031     2.4000545673     0.4231752626
 ----------------------------------------------------------------

    9     -75.7449525722      8.43e-08  Convergence criterion met
 Total energy in the final basis set =      -75.7437755847
 Final energy is   -75.7437755847500
 **  OPTIMIZATION CONVERGED  **

                    Orbital Energies (a.u.)
 --------------------------------------------------------------

 Alpha MOs
 -- Occupied --
-19.4036  -1.1430  -0.5915  -0.5209  -0.4654

 Beta MOs
 -- Occupied --
-19.3790  -1.0716  -0.5615  -0.4330

          Ground-State Mulliken Net Atomic Charges

     Atom                 Charge (a.u.)    Spin (a.u.)
  --------------------------------------------------------
      1 O                    -0.339749       1.013699
      2 H                     0.339749      -0.013699
  --------------------------------------------------------
  Sum of atomic charges =     0.000000

                    Cartesian Multipole Moments
 -----------------------------------------------------------------
    Charge (ESU x 10^10)
                 0.0000
    Dipole Moment (Debye)
         X       1.5676      Y       1.3570      Z      -0.5379
       Tot       2.1420
    Quadrupole Moments (Debye-Ang)
        XX     -10.7466     XY       1.8729     YY      -1.0112
        XZ       1.7291     YZ      -0.3404     ZZ      -6.2561

 Total job time:  14.50s(wall), 102.36s(cpu)
        *  Thank you very much for using Q-Chem.  Have a nice day.  *
