 Q-Chem 5.4, Q-Chem, Inc., Pleasanton, CA (2021)
 Q-Chem 5.4.1 for Intel X86 EM64T Linux

User input:
--------------------------------------------------------------
$molecule
-1 1
C         0.5350115579   -0.4334250488   -0.0336731285
O         1.4704287825   -1.1680747543   -0.2379881717
H         0.6565433537    0.6600010991    0.0022245863
C        -0.9035122627   -0.9470512349    0.1932302675
O        -1.0803050162   -2.1823266482    0.1655796731
O        -1.7477463154   -0.0421073131    0.3831652733
$end

$rem
BASIS = 6-311++G(2df,2p)
GUI = 2
JOB_TYPE = Frequency
METHOD = wB97M-V
SOLVENT_METHOD = SMD
SCF_ALGORITHM = DIIS_GDM
MAX_SCF_CYCLES = 400
SCF_CONVERGENCE = 7
THRESH = 12
UNRESTRICTED = 1
SYMMETRY_IGNORE = 1
$end
--------------------------------------------------------------

   14    -302.6736775015      5.26e-08  Convergence criterion met
 Total energy in the final basis set =     -302.6654887308
   14    -302.6736813256      1.50e-08  Convergence criterion met
 Total energy in the final basis set =     -302.6654875445
   14    -302.6736710738      3.26e-08  Convergence criterion met
 Total energy in the final basis set =     -302.6654873258
   14    -302.6736752168      1.50e-08  Convergence criterion met
 Total energy in the final basis set =     -302.6654873044
   14    -302.6736770418      1.48e-08  Convergence criterion met
 Total energy in the final basis set =     -302.6654874183
   14    -302.6736762838      5.36e-08  Convergence criterion met
 Total energy in the final basis set =     -302.6654884443
   15    -302.6736780507      4.62e-08  Convergence criterion met
 Total energy in the final basis set =     -302.6654883493
   14    -302.6736743591      7.11e-08  Convergence criterion met
 Total energy in the final basis set =     -302.6654886499
   14    -302.6736774040      9.03e-08  Convergence criterion met
 Total energy in the final basis set =     -302.6654887137
   14    -302.6736798470      6.79e-08  Convergence criterion met
 Total energy in the final basis set =     -302.6654881873
   14    -302.6736739560      1.64e-08  Convergence criterion met
 Total energy in the final basis set =     -302.6654880970
   14    -302.6736740363      1.48e-08  Convergence criterion met
 Total energy in the final basis set =     -302.6654881469
   14    -302.6736796153      1.49e-08  Convergence criterion met
 Total energy in the final basis set =     -302.6654879875
   14    -302.6736767420      6.42e-08  Convergence criterion met
 Total energy in the final basis set =     -302.6654886139
   14    -302.6736781285      9.91e-08  Convergence criterion met
 Total energy in the final basis set =     -302.6654887195

                    Orbital Energies (a.u.)
 --------------------------------------------------------------

 Alpha MOs
 -- Occupied --
-19.3520 -19.2958 -19.2938 -10.4465 -10.4360  -1.2022  -1.1719  -1.0907
 -0.7783  -0.6443  -0.5885  -0.5792  -0.5502  -0.5336  -0.4901  -0.4260
 -0.3795  -0.3704  -0.3480

 Beta MOs
 -- Occupied --
-19.3520 -19.2958 -19.2938 -10.4465 -10.4360  -1.2022  -1.1719  -1.0907
 -0.7783  -0.6443  -0.5885  -0.5792  -0.5502  -0.5336  -0.4901  -0.4260
 -0.3795  -0.3704  -0.3480

          Ground-State Mulliken Net Atomic Charges

     Atom                 Charge (a.u.)    Spin (a.u.)
  --------------------------------------------------------
      1 C                     0.183556       0.000000
      2 O                    -0.386046       0.000000
      3 H                     0.172830       0.000000
      4 C                     0.318960       0.000000
      5 O                    -0.656047       0.000000
      6 O                    -0.633252       0.000000
  --------------------------------------------------------
  Sum of atomic charges =    -1.000000

                    Cartesian Multipole Moments
 -----------------------------------------------------------------
    Charge (ESU x 10^10)
                -4.8032
    Dipole Moment (Debye)
         X       5.3661      Y       7.7665      Z      -0.9340
       Tot       9.4861
    Quadrupole Moments (Debye-Ang)
        XX     -47.8986     XY      -2.3606     YY     -47.9760
        XZ       3.7329     YZ       0.0932     ZZ     -29.1786

             Standard Nuclear Orientation (Angstroms)
    I     Atom           X                Y                Z
 ----------------------------------------------------------------
    1      C       0.5350115579    -0.4334250488    -0.0336731285
    2      O       1.4704287825    -1.1680747543    -0.2379881717
    3      H       0.6565433537     0.6600010991     0.0022245863
    4      C      -0.9035122627    -0.9470512349     0.1932302675
    5      O      -1.0803050162    -2.1823266482     0.1655796731
    6      O      -1.7477463154    -0.0421073131     0.3831652733
 ----------------------------------------------------------------

 Frequency:        68.78                 296.15                 513.97
 Force Cnst:      0.0094                 0.5897                 1.7049
 Red. Mass:       3.3688                11.4113                10.9542
 IR Intens:       46.383                  7.963                 20.019
 Frequency:       609.18                 726.16                 923.53
 Force Cnst:      0.7630                 2.9286                 3.2187
 Red. Mass:       3.4898                 9.4264                 6.4051
 IR Intens:       22.148                143.315                 18.270
 Frequency:      1035.83                1345.03                1419.70
 Force Cnst:      1.3091                 1.6269                 4.7537
 Red. Mass:       2.0709                 1.5264                 4.0030
 IR Intens:        5.717                 88.176                173.099
 Frequency:      1604.31                1790.83                3004.34
 Force Cnst:     17.5805                21.0090                 5.7846
 Red. Mass:      11.5933                11.1185                 1.0877
 IR Intens:     1430.060                276.989                109.677

 STANDARD THERMODYNAMIC QUANTITIES AT   298.15 K  AND     1.00 ATM

   This Molecule has  0 Imaginary Frequencies
   Zero point vibrational energy:       19.067 kcal/mol

   Atom    1 Element C  Has Mass   12.00000
   Atom    2 Element O  Has Mass   15.99491
   Atom    3 Element H  Has Mass    1.00783
   Atom    4 Element C  Has Mass   12.00000
   Atom    5 Element O  Has Mass   15.99491
   Atom    6 Element O  Has Mass   15.99491
   Molecular Mass:    72.992560 amu
   Principal axes and moments of inertia in amu*Bohr^2:
                             1           2           3
    Eigenvalues --      155.93795   395.53548   551.47177
          X               0.98069     0.09064     0.17331
          Y              -0.08370     0.99538    -0.04696
          Z              -0.17677     0.03154     0.98375
   Rotational Symmetry Number is   1
   The Molecule is an Asymmetric Top
   Translational Enthalpy:        0.889 kcal/mol
   Rotational Enthalpy:           0.889 kcal/mol
   Vibrational Enthalpy:         20.194 kcal/mol
   gas constant (RT):             0.592 kcal/mol
   Translational Entropy:        38.779  cal/mol.K
   Rotational Entropy:           25.034  cal/mol.K
   Vibrational Entropy:           7.220  cal/mol.K

   Total Enthalpy:               22.564 kcal/mol
   Total Entropy:                71.033  cal/mol.K
 Total job time:  851.50s(wall), 6567.30s(cpu)
        *  Thank you very much for using Q-Chem.  Have a nice day.  *
