 Q-Chem 5.4, Q-Chem, Inc., Pleasanton, CA (2021)
 Q-Chem 5.4.1 for Intel X86 EM64T Linux

User input:
--------------------------------------------------------------
$molecule
-1 1
C         0.5317807844   -0.4342304625   -0.0331938388
O         1.4725617689   -1.1755292753   -0.2376140090
H         0.6581510485    0.6652898405    0.0010415557
C        -0.9083326298   -0.9453519393    0.1941613668
O        -1.0711526838   -2.1876655768    0.1627334788
O        -1.7525881883   -0.0354964867    0.3854099465
$end

$rem
BASIS = 6-311++G(2df,2p)
GUI = 2
JOB_TYPE = Optimization
METHOD = wB97M-V
SCF_ALGORITHM = DIIS_GDM
MAX_SCF_CYCLES = 400
GEOM_OPT_MAX_CYCLES = 150
SCF_CONVERGENCE = 7
THRESH = 12
Solvent_method = SMD
$end
--------------------------------------------------------------

   15    -302.6733720629      1.34e-08  Convergence criterion met
 Total energy in the final basis set =     -302.6652386749
   15    -302.6736674630      5.78e-08  Convergence criterion met
 Total energy in the final basis set =     -302.6654827218
   15    -302.6733852693      5.18e-08  Convergence criterion met
 Total energy in the final basis set =     -302.6651956251
   15    -302.6736347028      4.66e-08  Convergence criterion met
 Total energy in the final basis set =     -302.6654468023
   15    -302.6711213274      3.13e-08  Convergence criterion met
 Total energy in the final basis set =     -302.6629349078
   15    -302.6736658948      2.95e-08  Convergence criterion met
 Total energy in the final basis set =     -302.6654774931
   15    -302.6736770411      4.78e-08  Convergence criterion met
 Total energy in the final basis set =     -302.6654883596

             Standard Nuclear Orientation (Angstroms)
    I     Atom           X                Y                Z
 ----------------------------------------------------------------
    1      C       0.5350115579    -0.4334250488    -0.0336731285
    2      O       1.4704287825    -1.1680747543    -0.2379881717
    3      H       0.6565433537     0.6600010991     0.0022245863
    4      C      -0.9035122627    -0.9470512349     0.1932302675
    5      O      -1.0803050162    -2.1823266482     0.1655796731
    6      O      -1.7477463154    -0.0421073131     0.3831652733
 ----------------------------------------------------------------

   14    -302.6736775019      3.54e-08  Convergence criterion met
 Total energy in the final basis set =     -302.6654887312
 Final energy is   -302.665488731218
 **  OPTIMIZATION CONVERGED  **

                    Orbital Energies (a.u.)
 --------------------------------------------------------------

 Alpha MOs
 -- Occupied --
-19.3520 -19.2958 -19.2938 -10.4465 -10.4360  -1.2022  -1.1719  -1.0907
 -0.7783  -0.6444  -0.5885  -0.5792  -0.5501  -0.5336  -0.4901  -0.4260
 -0.3795  -0.3704  -0.3480

          Ground-State Mulliken Net Atomic Charges

     Atom                 Charge (a.u.)
  ----------------------------------------
      1 C                     0.183570
      2 O                    -0.386024
      3 H                     0.172835
      4 C                     0.318953
      5 O                    -0.655947
      6 O                    -0.633387
  ----------------------------------------
  Sum of atomic charges =    -1.000000

                    Cartesian Multipole Moments
 -----------------------------------------------------------------
    Charge (ESU x 10^10)
                -4.8032
    Dipole Moment (Debye)
         X       5.3668      Y       7.7655      Z      -0.9375
       Tot       9.4861
    Quadrupole Moments (Debye-Ang)
        XX     -47.8994     XY      -2.3601     YY     -47.9737
        XZ       3.7395     YZ       0.0924     ZZ     -29.1819

 Total job time:  172.26s(wall), 1328.27s(cpu)
        *  Thank you very much for using Q-Chem.  Have a nice day.  *
