 Q-Chem 5.4, Q-Chem, Inc., Pleasanton, CA (2021)
 Q-Chem 5.4.1 for Intel X86 EM64T Linux

User input:
--------------------------------------------------------------
$molecule
0 1
O   -0.5954352    0.6622384   -0.0098350
H    0.3662974    0.6977181    0.0150387
H   -0.8750916    1.4164501    0.5189222
$end

$rem
BASIS = 6-311++G(2df,2p)
GUI = 2
JOB_TYPE = Frequency
METHOD = wB97M-V
SOLVENT_METHOD = SMD
SCF_ALGORITHM = DIIS_GDM
MAX_SCF_CYCLES = 400
SCF_CONVERGENCE = 7
THRESH = 12
SYMMETRY_IGNORE = 1
$end
--------------------------------------------------------------

    9     -76.4421348745      2.10e-08  Convergence criterion met
 Total energy in the final basis set =      -76.4398290220
    9     -76.4421334697      4.42e-08  Convergence criterion met
 Total energy in the final basis set =      -76.4398279336
    9     -76.4421341411      4.44e-08  Convergence criterion met
 Total energy in the final basis set =      -76.4398279735
    9     -76.4421339401      4.42e-08  Convergence criterion met
 Total energy in the final basis set =      -76.4398284538
    9     -76.4421345450      4.44e-08  Convergence criterion met
 Total energy in the final basis set =      -76.4398283273
    9     -76.4421342375      4.42e-08  Convergence criterion met
 Total energy in the final basis set =      -76.4398286414
    9     -76.4421348890      4.44e-08  Convergence criterion met
 Total energy in the final basis set =      -76.4398287801
    9     -76.4421347598      4.45e-08  Convergence criterion met
 Total energy in the final basis set =      -76.4398289656
    9     -76.4421350298      4.43e-08  Convergence criterion met
 Total energy in the final basis set =      -76.4398290242
    9     -76.4421341993      4.43e-08  Convergence criterion met
 Total energy in the final basis set =      -76.4398288818
    9     -76.4421352094      4.44e-08  Convergence criterion met
 Total energy in the final basis set =      -76.4398288223
    9     -76.4421348449      4.44e-08  Convergence criterion met
 Total energy in the final basis set =      -76.4398284085
    9     -76.4421337420      4.42e-08  Convergence criterion met
 Total energy in the final basis set =      -76.4398284736
    9     -76.4421350967      4.44e-08  Convergence criterion met
 Total energy in the final basis set =      -76.4398288347
    9     -76.4421340806      4.42e-08  Convergence criterion met
 Total energy in the final basis set =      -76.4398286374

                    Orbital Energies (a.u.)
 --------------------------------------------------------------

 Alpha MOs
 -- Occupied --
-19.3332  -1.1392  -0.6339  -0.5081  -0.4316

          Ground-State Mulliken Net Atomic Charges

     Atom                 Charge (a.u.)
  ----------------------------------------
      1 O                    -0.663180
      2 H                     0.331811
      3 H                     0.331369
  ----------------------------------------
  Sum of atomic charges =     0.000000

                    Cartesian Multipole Moments
 -----------------------------------------------------------------
    Charge (ESU x 10^10)
                 0.0000
    Dipole Moment (Debye)
         X       1.4438      Y       1.6724      Z       1.1705
       Tot       2.5003
    Quadrupole Moments (Debye-Ang)
        XX      -6.5182     XY      -0.6565     YY      -3.9743
        XZ      -1.1426     YZ       1.9817     ZZ      -7.1043

             Standard Nuclear Orientation (Angstroms)
    I     Atom           X                Y                Z
 ----------------------------------------------------------------
    1      O      -0.5954352000     0.6622384000    -0.0098350000
    2      H       0.3662974000     0.6977181000     0.0150387000
    3      H      -0.8750916000     1.4164501000     0.5189222000
 ----------------------------------------------------------------

 Frequency:      1590.30                3816.71                3897.82
 Force Cnst:      1.6118                 8.9784                 9.6825
 Red. Mass:       1.0817                 1.0461                 1.0817
 IR Intens:      129.235                 46.760                157.701

 STANDARD THERMODYNAMIC QUANTITIES AT   298.15 K  AND     1.00 ATM

   This Molecule has  0 Imaginary Frequencies
   Zero point vibrational energy:       13.302 kcal/mol

   Atom    1 Element O  Has Mass   15.99491
   Atom    2 Element H  Has Mass    1.00783
   Atom    3 Element H  Has Mass    1.00783
   Molecular Mass:    18.010570 amu
   Principal axes and moments of inertia in amu*Bohr^2:
                             1           2           3
    Eigenvalues --        2.22993     4.15961     6.38955
          X               0.81657     0.57724     0.00000
          Y              -0.47266     0.66862    -0.57405
          Z              -0.33137     0.46875     0.81882
   Rotational Symmetry Number is   1
   The Molecule is an Asymmetric Top
   Translational Enthalpy:        0.889 kcal/mol
   Rotational Enthalpy:           0.889 kcal/mol
   Vibrational Enthalpy:         13.304 kcal/mol
   gas constant (RT):             0.592 kcal/mol
   Translational Entropy:        34.608  cal/mol.K
   Rotational Entropy:           11.859  cal/mol.K
   Vibrational Entropy:           0.008  cal/mol.K

   Total Enthalpy:               15.674 kcal/mol
   Total Entropy:                46.475  cal/mol.K
 Total job time:  81.89s(wall), 623.11s(cpu)
        *  Thank you very much for using Q-Chem.  Have a nice day.  *
