 Q-Chem 5.4, Q-Chem, Inc., Pleasanton, CA (2021)
 Q-Chem 5.4.1 for Intel X86 EM64T Linux

User input:
--------------------------------------------------------------
$molecule
0 1
O   -0.6013969    0.6552884   -0.0147075
H    0.3879293    0.6903813    0.0098951
H   -0.8907618    1.4307369    0.5289383
$end

$rem
BASIS = 6-311++G(2df,2p)
GUI = 2
JOB_TYPE = Optimization
METHOD = wB97M-V
SCF_ALGORITHM = DIIS_GDM
MAX_SCF_CYCLES = 400
GEOM_OPT_MAX_CYCLES = 150
SCF_CONVERGENCE = 7
THRESH = 12
SOLVENT_METHOD = smd
$end
--------------------------------------------------------------

    9     -76.4408125714      2.36e-08  Convergence criterion met
 Total energy in the final basis set =      -76.4384600147
    9     -76.4421104758      3.90e-08  Convergence criterion met
 Total energy in the final basis set =      -76.4398085538
    9     -76.4421342818      4.50e-08  Convergence criterion met
 Total energy in the final basis set =      -76.4398288053

             Standard Nuclear Orientation (Angstroms)
    I     Atom           X                Y                Z
 ----------------------------------------------------------------
    1      O      -0.5954352408     0.6622384098    -0.0098350383
    2      H       0.3662974066     0.6977181228     0.0150387478
    3      H      -0.8750915658     1.4164500674     0.5189221904
 ----------------------------------------------------------------

    9     -76.4421348730      4.44e-08  Convergence criterion met
 Total energy in the final basis set =      -76.4398290206
 Final energy is   -76.4398290205703
 **  OPTIMIZATION CONVERGED  **

                    Orbital Energies (a.u.)
 --------------------------------------------------------------

 Alpha MOs
 -- Occupied --
-19.3332  -1.1391  -0.6337  -0.5081  -0.4316

          Ground-State Mulliken Net Atomic Charges

     Atom                 Charge (a.u.)
  ----------------------------------------
      1 O                    -0.663364
      2 H                     0.331811
      3 H                     0.331553
  ----------------------------------------
  Sum of atomic charges =     0.000000

                    Cartesian Multipole Moments
 -----------------------------------------------------------------
    Charge (ESU x 10^10)
                 0.0000
    Dipole Moment (Debye)
         X       1.4438      Y       1.6721      Z       1.1723
       Tot       2.5009
    Quadrupole Moments (Debye-Ang)
        XX      -6.5189     XY      -0.6561     YY      -3.9761
        XZ      -1.1445     YZ       1.9849     ZZ      -7.1020

 Total job time:  21.13s(wall), 78.04s(cpu)
        *  Thank you very much for using Q-Chem.  Have a nice day.  *
