 Q-Chem 5.4, Q-Chem, Inc., Pleasanton, CA (2021)
 Q-Chem 5.4.1 for Intel X86 EM64T Linux

User input:
--------------------------------------------------------------
$molecule
-1 2
O         0.1515186294    1.5878177924    1.4990550692
O         0.5756782706    0.7241744076    2.4115980308
$end

$rem
BASIS = 6-311++G(2df,2p)
GUI = 2
JOB_TYPE = Frequency
METHOD = wB97M-V
SOLVENT_METHOD = SMD
SCF_ALGORITHM = DIIS_GDM
MAX_SCF_CYCLES = 400
SCF_CONVERGENCE = 7
THRESH = 12
SYMMETRY_IGNORE = 1
$end
--------------------------------------------------------------

   44    -150.4769180573      8.23e-08  Convergence criterion met
 Total energy in the final basis set =     -150.4769180573
   10    -150.4769178991      7.83e-08  Convergence criterion met
 Total energy in the final basis set =     -150.4769178991
   11    -150.4769180359      5.17e-08  Convergence criterion met
 Total energy in the final basis set =     -150.4769180359
   11    -150.4769177276      5.82e-08  Convergence criterion met
 Total energy in the final basis set =     -150.4769177276
   11    -150.4769176470      5.68e-08  Convergence criterion met
 Total energy in the final basis set =     -150.4769176470
   10    -150.4769176819      3.21e-08  Convergence criterion met
 Total energy in the final basis set =     -150.4769176819
   11    -150.4769176055      4.66e-08  Convergence criterion met
 Total energy in the final basis set =     -150.4769176055
   11    -150.4769180359      5.48e-08  Convergence criterion met
 Total energy in the final basis set =     -150.4769180359
   11    -150.4769178991      5.32e-08  Convergence criterion met
 Total energy in the final basis set =     -150.4769178991
   11    -150.4769176470      5.60e-08  Convergence criterion met
 Total energy in the final basis set =     -150.4769176470
   11    -150.4769177276      5.93e-08  Convergence criterion met
 Total energy in the final basis set =     -150.4769177276
   10    -150.4769176055      2.88e-08  Convergence criterion met
 Total energy in the final basis set =     -150.4769176055
   11    -150.4769176819      4.60e-08  Convergence criterion met
 Total energy in the final basis set =     -150.4769176819

                    Orbital Energies (a.u.)
 --------------------------------------------------------------

 Alpha MOs
 -- Occupied --
-19.3359 -19.3359  -1.2143  -0.8628  -0.5244  -0.5200  -0.4953  -0.3235
 -0.2918

 Beta MOs
 -- Occupied --
-19.3217 -19.3215  -1.1851  -0.8203  -0.4993  -0.4799  -0.4365  -0.2727

          Ground-State Mulliken Net Atomic Charges

     Atom                 Charge (a.u.)    Spin (a.u.)
  --------------------------------------------------------
      1 O                    -0.500000       0.500000
      2 O                    -0.500000       0.500000
  --------------------------------------------------------
  Sum of atomic charges =    -1.000000

                    Cartesian Multipole Moments
 -----------------------------------------------------------------
    Charge (ESU x 10^10)
                -4.8032
    Dipole Moment (Debye)
         X      -1.7464      Y      -5.5525      Z      -9.3894
       Tot      11.0472
    Quadrupole Moments (Debye-Ang)
        XX     -13.6114     XY      -1.3259     YY     -21.1714
        XZ      -4.1539     YZ     -10.0153     ZZ     -33.1942

             Standard Nuclear Orientation (Angstroms)
    I     Atom           X                Y                Z
 ----------------------------------------------------------------
    1      O       0.1515186294     1.5878177924     1.4990550692
    2      O       0.5756782706     0.7241744076     2.4115980308
 ----------------------------------------------------------------

 Frequency:      1270.29
 Force Cnst:     15.2068
 Red. Mass:      15.9949
 IR Intens:        0.000

 STANDARD THERMODYNAMIC QUANTITIES AT   298.15 K  AND     1.00 ATM

   This Molecule has  0 Imaginary Frequencies
   Zero point vibrational energy:        1.816 kcal/mol

 Q-Chem warning in module 0, line  397:

  SYM_IGNORE is turned on for a linear molecule

    We detect a D*h symmetry
   Atom    1 Element O  Has Mass   15.99491
   Atom    2 Element O  Has Mass   15.99491
   Molecular Mass:    31.989820 amu
   Principal axes and moments of inertia in amu*Bohr^2:
                             1           2           3
    Eigenvalues --       -0.00000    50.22250    50.22250
          X               0.31986     0.53634     0.78104
          Y              -0.65127     0.72318    -0.22990
          Z               0.68814     0.43514    -0.58062
   Rotational Symmetry Number is   2
   The Molecule is a Symmetric Top
   Translational Enthalpy:        0.889 kcal/mol
   Rotational Enthalpy:           0.889 kcal/mol
   Vibrational Enthalpy:          1.824 kcal/mol
   gas constant (RT):             0.592 kcal/mol
   Translational Entropy:        36.321  cal/mol.K
   Rotational Entropy:           10.849  cal/mol.K
   Vibrational Entropy:           0.031  cal/mol.K

   Total Enthalpy:                4.194 kcal/mol
   Total Entropy:                47.200  cal/mol.K
 Total job time:  65.04s(wall), 488.48s(cpu)
        *  Thank you very much for using Q-Chem.  Have a nice day.  *
