 Q-Chem 5.4, Q-Chem, Inc., Pleasanton, CA (2021)
 Q-Chem 5.4.1 for Intel X86 EM64T Linux

User input:
--------------------------------------------------------------
$molecule
-1 2
O         0.1500719466    1.5907634239    1.4959426557
O         0.5771249534    0.7212287761    2.4147104443
$end

$rem
BASIS = 6-311++G(2df,2p)
GUI = 2
JOB_TYPE = Optimization
METHOD = wB97M-V
SCF_ALGORITHM = DIIS_GDM
MAX_SCF_CYCLES = 400
GEOM_OPT_MAX_CYCLES = 150
SCF_CONVERGENCE = 7
THRESH = 12
Solvent_method = SMD
$end
--------------------------------------------------------------

   48    -150.4768481781      9.66e-08  Convergence criterion met
 Total energy in the final basis set =     -150.4768481781
   22    -150.4769178822      6.05e-08  Convergence criterion met
 Total energy in the final basis set =     -150.4769178822

             Standard Nuclear Orientation (Angstroms)
    I     Atom           X                Y                Z
 ----------------------------------------------------------------
    1      O       0.1515186294     1.5878177924     1.4990550692
    2      O       0.5756782706     0.7241744076     2.4115980308
 ----------------------------------------------------------------

   10    -150.4769180569      2.36e-08  Convergence criterion met
 Total energy in the final basis set =     -150.4769180569
 Final energy is   -150.476918056936
 **  OPTIMIZATION CONVERGED  **

                    Orbital Energies (a.u.)
 --------------------------------------------------------------

 Alpha MOs
 -- Occupied --
-19.3360 -19.3360  -1.2139  -0.8630  -0.5242  -0.5199  -0.4952  -0.3236
 -0.2920

 Beta MOs
 -- Occupied --
-19.3217 -19.3216  -1.1847  -0.8205  -0.4992  -0.4798  -0.4363  -0.2729

          Ground-State Mulliken Net Atomic Charges

     Atom                 Charge (a.u.)    Spin (a.u.)
  --------------------------------------------------------
      1 O                    -0.500000       0.500000
      2 O                    -0.500000       0.500000
  --------------------------------------------------------
  Sum of atomic charges =    -1.000000

                    Cartesian Multipole Moments
 -----------------------------------------------------------------
    Charge (ESU x 10^10)
                -4.8032
    Dipole Moment (Debye)
         X      -1.7464      Y      -5.5525      Z      -9.3918
       Tot      11.0493
    Quadrupole Moments (Debye-Ang)
        XX     -13.6121     XY      -1.3267     YY     -21.1707
        XZ      -4.1542     YZ     -10.0185     ZZ     -33.2050

 Total job time:  25.29s(wall), 190.61s(cpu)
        *  Thank you very much for using Q-Chem.  Have a nice day.  *
