 Q-Chem 5.4, Q-Chem, Inc., Pleasanton, CA (2021)
 Q-Chem 5.4.1 for Intel X86 EM64T Linux

User input:
--------------------------------------------------------------
$molecule
0 2
O         0.7139837603   -0.0221978848    0.0000000000
O        -0.5886126674    0.1177581209    0.0000000000
H        -0.9637405214   -0.7836068958    0.0000000000
$end

$rem
BASIS = 6-31G(d)
JOB_TYPE = SP
METHOD = wB97M-V
SCF_ALGORITHM = DIIS_GDM
MAX_SCF_CYCLES = 400
SCF_CONVERGENCE = 7
THRESH = 12
Solvent_method = SMD
$end
--------------------------------------------------------------

             Standard Nuclear Orientation (Angstroms)
    I     Atom           X                Y                Z
 ----------------------------------------------------------------
    1      O       0.7139837603    -0.0221978848     0.0000000000
    2      O      -0.5886126674     0.1177581209     0.0000000000
    3      H      -0.9637405214    -0.7836068958     0.0000000000
 ----------------------------------------------------------------

   15    -150.8627858154      2.70e-08  Convergence criterion met
 Total energy in the final basis set =     -150.8616777537

                    Orbital Energies (a.u.)
 --------------------------------------------------------------

 Alpha MOs
 -- Occupied --
-19.4668 -19.4302  -1.3266  -0.9838  -0.6672  -0.5977  -0.5857  -0.3982
 -0.3911

 Beta MOs
 -- Occupied --
-19.4576 -19.4111  -1.2998  -0.9437  -0.6501  -0.5667  -0.5157  -0.3759

          Ground-State Mulliken Net Atomic Charges

     Atom                 Charge (a.u.)    Spin (a.u.)
  --------------------------------------------------------
      1 O                    -0.212053       0.716245
      2 O                    -0.280810       0.295058
      3 H                     0.492864      -0.011303
  --------------------------------------------------------
  Sum of atomic charges =     0.000000

                    Cartesian Multipole Moments
 -----------------------------------------------------------------
    Charge (ESU x 10^10)
                -0.0000
    Dipole Moment (Debye)
         X      -2.1147      Y      -1.9463      Z      -0.0000
       Tot       2.8740
    Quadrupole Moments (Debye-Ang)
        XX     -10.1968     XY       1.9875     YY      -9.9239
        XZ       0.0000     YZ       0.0000     ZZ     -10.7422

 Total job time:  6.36s(wall), 22.41s(cpu)
        *  Thank you very much for using Q-Chem.  Have a nice day.  *
