 Q-Chem 5.4, Q-Chem, Inc., Pleasanton, CA (2021)
 Q-Chem 5.4.1 for Intel X86 EM64T Linux

User input:
--------------------------------------------------------------
$molecule
-1 2
C         0.2893629763    0.0315406487    0.5566337965
O         0.6541680611   -1.1565349345    0.4174602413
C        -1.2484564108    0.2451230646    0.4406601187
O        -1.9097781564   -0.9131982675    0.1604466214
O        -1.5417753257    1.2702625386   -0.4185445904
O         0.9759381516    1.0444137214    0.7745928551
O        -1.7384232270    0.7473130169    1.7662032033
O        -1.5108119417   -0.1144755690    2.7119986494
H        -1.2217318192   -1.6053856353    0.1817768981
H        -2.4856635083    1.2394733162   -0.6302879932
$end

$rem
BASIS = def2-QZVP
JOB_TYPE = SP
METHOD = wB97M-V
SCF_ALGORITHM = DIIS_GDM
MAX_SCF_CYCLES = 400
SCF_CONVERGENCE = 7
THRESH = 12
Solvent_method = SMD
$end
--------------------------------------------------------------

             Standard Nuclear Orientation (Angstroms)
    I     Atom           X                Y                Z
 ----------------------------------------------------------------
    1      C       0.2893629763     0.0315406487     0.5566337965
    2      O       0.6541680611    -1.1565349345     0.4174602413
    3      C      -1.2484564108     0.2451230646     0.4406601187
    4      O      -1.9097781564    -0.9131982675     0.1604466214
    5      O      -1.5417753257     1.2702625386    -0.4185445904
    6      O       0.9759381516     1.0444137214     0.7745928551
    7      O      -1.7384232270     0.7473130169     1.7662032033
    8      O      -1.5108119417    -0.1144755690     2.7119986494
    9      H      -1.2217318192    -1.6053856353     0.1817768981
   10      H      -2.4856635083     1.2394733162    -0.6302879932
 ----------------------------------------------------------------

   21    -528.9388257473      6.63e-08  Convergence criterion met
 Total energy in the final basis set =     -528.9325078617

                    Orbital Energies (a.u.)
 --------------------------------------------------------------

 Alpha MOs
 -- Occupied --
-19.4536 -19.4132 -19.3620 -19.3556 -19.2993 -19.2943 -10.5103 -10.4547
 -1.3452  -1.2344  -1.1804  -1.1625  -1.0961  -0.9913  -0.8079  -0.7158
 -0.6738  -0.6643  -0.6107  -0.6061  -0.5867  -0.5451  -0.5267  -0.5243
 -0.5084  -0.4751  -0.4341  -0.4133  -0.3984  -0.3830  -0.3734  -0.3650

 Beta MOs
 -- Occupied --
-19.4434 -19.3945 -19.3620 -19.3555 -19.2992 -19.2943 -10.5107 -10.4546
 -1.3210  -1.2309  -1.1802  -1.1624  -1.0959  -0.9563  -0.8016  -0.7097
 -0.6704  -0.6540  -0.6018  -0.5770  -0.5501  -0.5405  -0.5244  -0.5173
 -0.5030  -0.4691  -0.4311  -0.3933  -0.3829  -0.3733  -0.3634

          Ground-State Mulliken Net Atomic Charges

     Atom                 Charge (a.u.)    Spin (a.u.)
  --------------------------------------------------------
      1 C                     0.250384       0.005727
      2 O                    -0.565768       0.003374
      3 C                     0.372449      -0.011941
      4 O                    -0.435159       0.003451
      5 O                    -0.428439       0.000313
      6 O                    -0.560058      -0.000820
      7 O                    -0.071838       0.316425
      8 O                    -0.219610       0.683168
      9 H                     0.325703       0.000411
     10 H                     0.332335      -0.000107
  --------------------------------------------------------
  Sum of atomic charges =    -1.000000

                    Cartesian Multipole Moments
 -----------------------------------------------------------------
    Charge (ESU x 10^10)
                -4.8032
    Dipole Moment (Debye)
         X      -3.5802      Y      -0.9651      Z      -5.7785
       Tot       6.8659
    Quadrupole Moments (Debye-Ang)
        XX     -51.2295     XY      -3.0496     YY     -54.1576
        XZ       3.9058     YZ      -1.8440     ZZ     -57.4489

 Total job time:  2055.95s(wall), 8138.73s(cpu)
        *  Thank you very much for using Q-Chem.  Have a nice day.  *
