 Q-Chem 5.4, Q-Chem, Inc., Pleasanton, CA (2021)
 Q-Chem 5.4.1 for Intel X86 EM64T Linux

User input:
--------------------------------------------------------------
$molecule
0 2
C         0.5695364666    0.0119301795    0.6700025330
O         1.4789047047   -0.2444354264    1.4529369886
H        -1.5874791836   -0.0042416406   -0.8607253565
C        -0.5883875990   -0.8391455004    0.5767346309
O        -0.5918967654   -1.9098741433    1.3586140692
O        -1.6065446707   -0.7618225066   -0.2626693904
O         0.6742482200    1.1189624247   -0.0988121464
H        -0.1018849591    1.3272414999   -0.6326109051
O        -1.5183944077    0.8592388770    2.0550452789
O        -2.5615200239    1.1545408207    1.5113733859
H        -1.4004993818   -2.4225410845    1.2079938120
$end

$rem
BASIS = def2-TZVP
JOB_TYPE = SP
METHOD = wB97M-V
SCF_ALGORITHM = DIIS_GDM
MAX_SCF_CYCLES = 400
SCF_CONVERGENCE = 7
THRESH = 12
Solvent_method = SMD
$end
--------------------------------------------------------------

             Standard Nuclear Orientation (Angstroms)
    I     Atom           X                Y                Z
 ----------------------------------------------------------------
    1      C       0.5695364666     0.0119301795     0.6700025330
    2      O       1.4789047047    -0.2444354264     1.4529369886
    3      H      -1.5874791836    -0.0042416406    -0.8607253565
    4      C      -0.5883875990    -0.8391455004     0.5767346309
    5      O      -0.5918967654    -1.9098741433     1.3586140692
    6      O      -1.6065446707    -0.7618225066    -0.2626693904
    7      O       0.6742482200     1.1189624247    -0.0988121464
    8      H      -0.1018849591     1.3272414999    -0.6326109051
    9      O      -1.5183944077     0.8592388770     2.0550452789
   10      O      -2.5615200239     1.1545408207     1.5113733859
   11      H      -1.4004993818    -2.4225410845     1.2079938120
 ----------------------------------------------------------------

   29    -529.3068318161      4.28e-08  Convergence criterion met
 Total energy in the final basis set =     -529.2996652728

                    Orbital Energies (a.u.)
 --------------------------------------------------------------

 Alpha MOs
 -- Occupied --
-19.4708 -19.4595 -19.4002 -19.3891 -19.3789 -19.3171 -10.4906 -10.4872
 -1.4080  -1.2699  -1.2280  -1.1925  -1.1430  -0.9455  -0.8500  -0.7523
 -0.7387  -0.6796  -0.6617  -0.6544  -0.6447  -0.5805  -0.5773  -0.5472
 -0.5316  -0.5302  -0.5041  -0.4630  -0.4232  -0.4029  -0.3949  -0.3883

 Beta MOs
 -- Occupied --
-19.4428 -19.4321 -19.4025 -19.3920 -19.3797 -19.3213 -10.4975 -10.4880
 -1.3564  -1.2764  -1.2313  -1.1983  -1.1488  -0.8770  -0.8562  -0.7572
 -0.7412  -0.6830  -0.6351  -0.5962  -0.5856  -0.5610  -0.5506  -0.5503
 -0.5358  -0.5340  -0.5074  -0.4818  -0.4420  -0.4074  -0.2681

          Ground-State Mulliken Net Atomic Charges

     Atom                 Charge (a.u.)    Spin (a.u.)
  --------------------------------------------------------
      1 C                     0.334830      -0.081737
      2 O                    -0.488122      -0.151910
      3 H                     0.408549       0.001953
      4 C                     0.271952      -0.408805
      5 O                    -0.405716      -0.083247
      6 O                    -0.383547      -0.070421
      7 O                    -0.417701      -0.023931
      8 H                     0.386179       0.000224
      9 O                    -0.045095       0.904298
     10 O                    -0.069264       0.911152
     11 H                     0.407935       0.002424
  --------------------------------------------------------
  Sum of atomic charges =     0.000000

                    Cartesian Multipole Moments
 -----------------------------------------------------------------
    Charge (ESU x 10^10)
                -0.0000
    Dipole Moment (Debye)
         X      -6.4807      Y      -0.6432      Z      -5.7389
       Tot       8.6803
    Quadrupole Moments (Debye-Ang)
        XX     -50.3998     XY       3.6008     YY     -39.8615
        XZ      -3.6430     YZ      -3.3698     ZZ     -49.6638

 Total job time:  244.38s(wall), 961.80s(cpu)
        *  Thank you very much for using Q-Chem.  Have a nice day.  *
