 Q-Chem 5.4, Q-Chem, Inc., Pleasanton, CA (2021)
 Q-Chem 5.4.1 for Intel X86 EM64T Linux

User input:
--------------------------------------------------------------
$molecule
-1 1
O        -0.7700752962    1.0095248173   -0.0901959350
C        -0.3608196099   -0.2115914739    0.4922317158
O        -1.0496930004   -1.3042071768   -0.0673185286
C         1.1546408297   -0.3521732406    0.2396058149
O         1.8571576590    0.5647537115    0.7328913092
O         1.5662840877   -1.3426908188   -0.4048193267
H        -1.6025330528    1.2738191661    0.3164522571
H        -1.9354580049   -1.3186989432    0.3121775248
H        -0.5354792121   -0.1788818416    1.5697029686
$end

$rem
BASIS = def2-TZVP
JOB_TYPE = SP
METHOD = wB97M-V
SCF_ALGORITHM = DIIS_GDM
MAX_SCF_CYCLES = 400
SCF_CONVERGENCE = 7
THRESH = 12
Solvent_method = SMD
$end
--------------------------------------------------------------

             Standard Nuclear Orientation (Angstroms)
    I     Atom           X                Y                Z
 ----------------------------------------------------------------
    1      O      -0.7700752962     1.0095248173    -0.0901959350
    2      C      -0.3608196099    -0.2115914739     0.4922317158
    3      O      -1.0496930004    -1.3042071768    -0.0673185286
    4      C       1.1546408297    -0.3521732406     0.2396058149
    5      O       1.8571576590     0.5647537115     0.7328913092
    6      O       1.5662840877    -1.3426908188    -0.4048193267
    7      H      -1.6025330528     1.2738191661     0.3164522571
    8      H      -1.9354580049    -1.3186989432     0.3121775248
    9      H      -0.5354792121    -0.1788818416     1.5697029686
 ----------------------------------------------------------------

   14    -379.1434371134      8.32e-08  Convergence criterion met
 Total energy in the final basis set =     -379.1367617382

                    Orbital Energies (a.u.)
 --------------------------------------------------------------

 Alpha MOs
 -- Occupied --
-19.3350 -19.3337 -19.2783 -19.2756 -10.4334 -10.4333  -1.1952  -1.1563
 -1.1255  -1.0718  -0.8090  -0.6428  -0.6338  -0.6286  -0.5713  -0.5243
 -0.5054  -0.4940  -0.4845  -0.4095  -0.4049  -0.3654  -0.3552  -0.3524

          Ground-State Mulliken Net Atomic Charges

     Atom                 Charge (a.u.)
  ----------------------------------------
      1 O                    -0.533092
      2 C                     0.117129
      3 O                    -0.528503
      4 C                     0.339258
      5 O                    -0.641248
      6 O                    -0.624457
      7 H                     0.375702
      8 H                     0.374737
      9 H                     0.120473
  ----------------------------------------
  Sum of atomic charges =    -1.000000

                    Cartesian Multipole Moments
 -----------------------------------------------------------------
    Charge (ESU x 10^10)
                -4.8032
    Dipole Moment (Debye)
         X     -12.0160      Y       2.2661      Z       2.5243
       Tot      12.4857
    Quadrupole Moments (Debye-Ang)
        XX     -46.3462     XY       1.7550     YY     -46.5386
        XZ      -5.9088     YZ      -4.4416     ZZ     -37.4196

 Total job time:  68.99s(wall), 271.66s(cpu)
        *  Thank you very much for using Q-Chem.  Have a nice day.  *
