 Q-Chem 5.4, Q-Chem, Inc., Pleasanton, CA (2021)
 Q-Chem 5.4.1 for Intel X86 EM64T Linux

User input:
--------------------------------------------------------------
$molecule
0 2
O        -1.7005575682    1.7829465742    0.6678097587
H        -0.9876783031    2.4000545673    0.4231752626
$end

$rem
BASIS = def2-TZVP
JOB_TYPE = SP
METHOD = wB97M-V
SCF_ALGORITHM = DIIS_GDM
MAX_SCF_CYCLES = 400
SCF_CONVERGENCE = 7
THRESH = 12
Solvent_method = SMD
$end
--------------------------------------------------------------

             Standard Nuclear Orientation (Angstroms)
    I     Atom           X                Y                Z
 ----------------------------------------------------------------
    1      O      -1.7005575682     1.7829465742     0.6678097587
    2      H      -0.9876783031     2.4000545673     0.4231752626
 ----------------------------------------------------------------

   29     -75.7483001970      1.92e-08  Convergence criterion met
 Total energy in the final basis set =      -75.7471232095

                    Orbital Energies (a.u.)
 --------------------------------------------------------------

 Alpha MOs
 -- Occupied --
-19.3955  -1.1371  -0.5862  -0.5160  -0.4600

 Beta MOs
 -- Occupied --
-19.3711  -1.0658  -0.5564  -0.4280

          Ground-State Mulliken Net Atomic Charges

     Atom                 Charge (a.u.)    Spin (a.u.)
  --------------------------------------------------------
      1 O                    -0.397623       1.020044
      2 H                     0.397623      -0.020044
  --------------------------------------------------------
  Sum of atomic charges =     0.000000

                    Cartesian Multipole Moments
 -----------------------------------------------------------------
    Charge (ESU x 10^10)
                 0.0000
    Dipole Moment (Debye)
         X       1.5799      Y       1.3677      Z      -0.5421
       Tot       2.1588
    Quadrupole Moments (Debye-Ang)
        XX     -10.6467     XY       1.8292     YY      -0.8136
        XZ       1.7408     YZ      -0.3336     ZZ      -6.1522

 Total job time:  10.90s(wall), 38.77s(cpu)
        *  Thank you very much for using Q-Chem.  Have a nice day.  *
