 Q-Chem 5.4, Q-Chem, Inc., Pleasanton, CA (2021)
 Q-Chem 5.4.1 for Intel X86 EM64T Linux

User input:
--------------------------------------------------------------
$molecule
0 2
O        -0.4628443119    1.4062765168   -0.3338263962
C         0.0001780212    0.4576397441    0.5699888494
O        -0.9991184032   -0.4100108625    0.9945623619
C         1.1585387697   -0.3123762542   -0.0500006829
O         2.0694287861    0.4823349227   -0.5845675524
O         1.2217330546   -1.5180777080   -0.0011624366
H        -1.0496509914    2.0161099922    0.1307241003
H        -0.6649513630   -1.3165348992    0.9062656099
H         2.7994759286   -0.0533732966   -0.9357000371
H         0.4330768658    0.9910550084    1.4857371922
O         1.2872704652    1.6529693057    2.5904387587
H         2.0679795783    1.7852775305    2.0246481329
$end

$rem
BASIS = 6-311++G(2df,2p)
GUI = 2
JOB_TYPE = Frequency
METHOD = wB97M-V
SOLVENT_METHOD = SMD
SCF_ALGORITHM = DIIS_GDM
MAX_SCF_CYCLES = 400
SCF_CONVERGENCE = 7
THRESH = 12
SYMMETRY_IGNORE = 1
$end

--------------------------------------------------------------

   23    -455.3214614530      4.00e-08  Convergence criterion met
 Total energy in the final basis set =     -455.3139441242
   20    -455.3214640435      5.15e-08  Convergence criterion met
 Total energy in the final basis set =     -455.3139434858
   20    -455.3214578284      5.07e-08  Convergence criterion met
 Total energy in the final basis set =     -455.3139437232
   19    -455.3214538235      5.25e-08  Convergence criterion met
 Total energy in the final basis set =     -455.3139432134
   19    -455.3214676406      8.05e-08  Convergence criterion met
 Total energy in the final basis set =     -455.3139435503
   19    -455.3214670671      8.14e-08  Convergence criterion met
 Total energy in the final basis set =     -455.3139433897
   20    -455.3214546284      7.32e-08  Convergence criterion met
 Total energy in the final basis set =     -455.3139436105
   20    -455.3214494425      5.63e-08  Convergence criterion met
 Frequency:      -387.32                  44.34                  71.12
 Force Cnst:      0.3526                 0.0116                 0.0162
 Red. Mass:       3.9892                 9.9934                 5.4482
 IR Intens:      719.326                  1.517                  9.297
 Frequency:        78.99                 129.04                 201.89
 Force Cnst:      0.0232                 0.0108                 0.0275
 Red. Mass:       6.3083                 1.0975                 1.1461
 IR Intens:        4.608                206.464                299.416
 Frequency:       259.42                 265.08                 354.81
 Force Cnst:      0.0672                 0.1279                 0.2830
 Red. Mass:       1.6956                 3.0905                 3.8150
 IR Intens:       82.963                 31.112                 17.079
 Frequency:       461.34                 540.51                 578.25
 Force Cnst:      0.5089                 0.3286                 0.6973
 Red. Mass:       4.0581                 1.9088                 3.5396
 IR Intens:       15.883                 72.094                 46.453
 Frequency:       622.32                 697.64                 771.50
 Force Cnst:      0.5553                 0.3568                 1.3690
 Red. Mass:       2.4336                 1.2442                 3.9039
 IR Intens:       90.534                119.362                173.435
 Frequency:       893.74                1108.96                1150.69
 Force Cnst:      1.7544                 2.5509                 2.5900
 Red. Mass:       3.7278                 3.5206                 3.3200
 IR Intens:       80.219                917.128                996.072
 Frequency:      1173.33                1206.44                1275.64
 Force Cnst:      1.0776                 1.7392                 1.3413
 Red. Mass:       1.3286                 2.0281                 1.3990
 IR Intens:      178.629                  9.906                125.973
 Frequency:      1316.87                1356.01                1470.39
 Force Cnst:      1.1529                 2.0456                 2.5820
 Red. Mass:       1.1284                 1.8882                 2.0270
 IR Intens:      329.490                128.030                292.273
 Frequency:      1763.24                1823.67                3718.05
 Force Cnst:     14.2623                 2.3748                 8.6762
 Red. Mass:       7.7860                 1.2119                 1.0652
 IR Intens:     1278.487               3293.779                268.756
 Frequency:      3733.62                3735.05                3806.59
 Force Cnst:      8.7464                 8.7709                 9.1043
 Red. Mass:       1.0649                 1.0671                 1.0664
 IR Intens:      180.771                186.169                170.429

 STANDARD THERMODYNAMIC QUANTITIES AT   298.15 K  AND     1.00 ATM

   This Molecule has  1 Imaginary Frequencies
   Zero point vibrational energy:       49.475 kcal/mol

   Atom    1 Element O  Has Mass   15.99491
   Atom    2 Element C  Has Mass   12.00000
   Atom    3 Element O  Has Mass   15.99491
   Atom    4 Element C  Has Mass   12.00000
   Atom    5 Element O  Has Mass   15.99491
   Atom    6 Element O  Has Mass   15.99491
   Atom    7 Element H  Has Mass    1.00783
   Atom    8 Element H  Has Mass    1.00783
   Atom    9 Element H  Has Mass    1.00783
   Atom   10 Element H  Has Mass    1.00783
   Atom   11 Element O  Has Mass   15.99491
   Atom   12 Element H  Has Mass    1.00783
   Molecular Mass:   109.013700 amu
   Principal axes and moments of inertia in amu*Bohr^2:
                             1           2           3
    Eigenvalues --      719.08888   867.78828  1036.72364
          X              -0.26465     0.95829     0.10792
          Y               0.69621     0.26730    -0.66621
          Z               0.66727     0.10117     0.73791
   Rotational Symmetry Number is   1
   The Molecule is an Asymmetric Top
   Translational Enthalpy:        0.889 kcal/mol
   Rotational Enthalpy:           0.889 kcal/mol
   Vibrational Enthalpy:         53.299 kcal/mol
   gas constant (RT):             0.592 kcal/mol
   Translational Entropy:        39.975  cal/mol.K
   Rotational Entropy:           27.961  cal/mol.K
   Vibrational Entropy:          25.813  cal/mol.K

   Total Enthalpy:               55.669 kcal/mol
   Total Entropy:                93.749  cal/mol.K
 Total job time:  8407.79s(wall), 65027.88s(cpu)
        *  Thank you very much for using Q-Chem.  Have a nice day.  *
 Q-Chem 5.4, Q-Chem, Inc., Pleasanton, CA (2021)
 Q-Chem 5.4.1 for Intel X86 EM64T Linux

User input:
--------------------------------------------------------------

$molecule
read
$end

$rem
JOBTYPE            rpath
SCF_GUESS          read
RPATH_MAX_CYCLES   30
BASIS = 6-311++G(2df,2p)
METHOD = wB97M-V
SOLVENT_METHOD = SMD
SCF_ALGORITHM = DIIS_GDM
SCF_CONVERGENCE = 7
THRESH = 12
$end
--------------------------------------------------------------

 Total energy in the final basis set =     -455.3777916355
   16    -455.3873083017      5.66e-08  Convergence criterion met
 Total energy in the final basis set =     -455.3785058067
   16    -455.3851322525      3.98e-08  Convergence criterion met
 Total energy in the final basis set =     -455.3763031712
   16    -455.3873866448      6.32e-08  Convergence criterion met
 Total energy in the final basis set =     -455.3785797406
   16    -455.3840400999      5.64e-08  Convergence criterion met
 Total energy in the final basis set =     -455.3752753568
   16    -455.3874370008      5.94e-08  Convergence criterion met
 Total energy in the final basis set =     -455.3786343443
   16    -455.3874465348      5.71e-08  Convergence criterion met
 Total energy in the final basis set =     -455.3786323463
   16    -455.3874552770      5.67e-08  Convergence criterion met
 Total energy in the final basis set =     -455.3786470549

                    Orbital Energies (a.u.)
 --------------------------------------------------------------

 Alpha MOs
 -- Occupied --
-19.3978 -19.3974 -19.3796 -19.3349 -19.3282 -10.4863 -10.4824  -1.2737
 -1.2324  -1.2003  -1.1476  -1.1419  -0.8787  -0.7537  -0.7017  -0.6809
 -0.6442  -0.6146  -0.6073  -0.5495  -0.5461  -0.5351  -0.5149  -0.5101
 -0.4878  -0.4466  -0.4326  -0.4108  -0.2792

 Beta MOs
 -- Occupied --
-19.3945 -19.3942 -19.3784 -19.3347 -19.3232 -10.4810 -10.4783  -1.2656
 -1.2280  -1.1931  -1.1414  -1.1402  -0.8614  -0.7476  -0.6960  -0.6753
 -0.6393  -0.6049  -0.5895  -0.5419  -0.5371  -0.5235  -0.5097  -0.5075
 -0.4620  -0.4318  -0.4228  -0.4043

          Ground-State Mulliken Net Atomic Charges

     Atom                 Charge (a.u.)    Spin (a.u.)
  --------------------------------------------------------
      1 O                    -0.332401       0.089800
      2 C                    -0.042757       0.485852
      3 O                    -0.292785       0.096095
      4 C                     0.401643       0.113046
      5 O                    -0.337048       0.035700
      6 O                    -0.550983       0.175073
      7 H                     0.380106       0.001456
      8 H                     0.345333      -0.003002
      9 H                     0.354457      -0.000448
     10 H                     0.426623      -0.001233
     11 O                    -0.676957       0.008006
     12 H                     0.324769      -0.000345
  --------------------------------------------------------
  Sum of atomic charges =     0.000000

                    Cartesian Multipole Moments
 -----------------------------------------------------------------
    Charge (ESU x 10^10)
                 0.0000
    Dipole Moment (Debye)
         X      -1.3494      Y       1.0049      Z      -1.5881
       Tot       2.3136
    Quadrupole Moments (Debye-Ang)
        XX     -32.6064     XY       0.3944     YY     -46.2673
        XZ      -5.2745     YZ      -3.2638     ZZ     -51.6009

             Standard Nuclear Orientation (Angstroms)
    I     Atom           X                Y                Z
 ----------------------------------------------------------------
    1      O      -0.4628443119     1.4062765168    -0.3338263962
    2      C       0.0001780212     0.4576397441     0.5699888494
    3      O      -0.9991184032    -0.4100108625     0.9945623619
    4      C       1.1585387697    -0.3123762542    -0.0500006829
    5      O       2.0694287861     0.4823349227    -0.5845675524
    6      O       1.2217330546    -1.5180777080    -0.0011624366
    7      H      -1.0496509914     2.0161099922     0.1307241003
    8      H      -0.6649513630    -1.3165348992     0.9062656099
    9      H       2.7994759286    -0.0533732966    -0.9357000371
   10      H       0.4330768658     0.9910550084     1.4857371922
   11      O       1.2872704652     1.6529693057     2.5904387587
   12      H       2.0679795783     1.7852775305     2.0246481329
 ----------------------------------------------------------------

 Total job time:  7149.73s(wall), 55371.93s(cpu)
        *  Thank you very much for using Q-Chem.  Have a nice day.  *
