 Q-Chem 5.4, Q-Chem, Inc., Pleasanton, CA (2021)
 Q-Chem 5.4.1 for Intel X86 EM64T Linux

User input:
--------------------------------------------------------------
$molecule
0 2
O   -0.8820247    1.0690563   -0.2833168
C   -0.0643048    0.4858447    0.6971505
O   -0.7508723   -0.5472826    1.3581975
C    1.1876969   -0.0532654    0.0533649
O    2.4070601    0.4068181    0.4067364
O    1.1033302   -0.9184384   -0.8040392
H   -1.5933885    1.5585038    0.2055143
H   -1.1573745   -1.1261802    0.6609745
H    3.2246410   -0.0566171   -0.1882382
H    0.3218659    1.4369544    1.5673464
O    1.5706511    1.7733809    1.7923166
H    2.4938360    1.1525155    1.3311010
$end

$rem
BASIS = 6-311++G(2df,2p)
GUI = 2
JOB_TYPE = Frequency
METHOD = wB97M-V
SCF_ALGORITHM = DIIS_GDM
MAX_SCF_CYCLES = 400
SCF_CONVERGENCE = 6
THRESH = 11
SYMMETRY_IGNORE = 1
solvent_method = SMD
$end

--------------------------------------------------------------

   20    -455.2136844779      4.86e-07  Convergence criterion met
 Total energy in the final basis set =     -455.2069018839
   18    -455.2136870887      8.07e-07  Convergence criterion met
 Total energy in the final basis set =     -455.2069008145
   18    -455.2136805738      7.03e-07  Convergence criterion met
 Total energy in the final basis set =     -455.2069015260
   18    -455.2136992332      7.88e-07  Convergence criterion met
 Total energy in the final basis set =     -455.2069194973
   18    -455.2136689223      7.90e-07  Convergence criterion met
 Total energy in the final basis set =     -455.2068834046
   18    -455.2137173701      6.99e-07  Convergence criterion met
 Total energy in the final basis set =     -455.2069301854
   18    -455.2136503962      8.39e-07  Convergence criterion met
 Total energy in the final basis set =     -455.2068721989
   18    -455.2136434500      7.51e-07  Convergence criterion met
 Frequency:     -2131.40               -1058.66                -196.81
 Force Cnst:      2.9004                 0.7425                 0.2412
 Red. Mass:       1.0836                 1.1244                10.5684
 IR Intens:     3489.619               3058.804                 21.050
 Frequency:       131.55                 286.33                 347.53
 Force Cnst:      0.0796                 0.4152                 0.5123
 Red. Mass:       7.8077                 8.5959                 7.1988
 IR Intens:        2.881                  7.909                 20.208
 Frequency:       356.63                 432.52                 569.74
 Force Cnst:      0.5257                 0.8539                 0.3143
 Red. Mass:       7.0148                 7.7473                 1.6432
 IR Intens:       14.495                 80.809                 45.544
 Frequency:       603.62                 667.47                 699.16
 Force Cnst:      0.4247                 0.4476                 0.7350
 Red. Mass:       1.9783                 1.7051                 2.5522
 IR Intens:      303.856                150.465                357.355
 Frequency:       776.29                 803.42                 887.77
 Force Cnst:      2.7617                 1.3877                 0.9055
 Red. Mass:       7.7783                 3.6488                 1.9501
 IR Intens:       85.437                 87.224                137.362
 Frequency:       952.27                1114.44                1155.98
 Force Cnst:      0.9487                 0.8032                 2.7628
 Red. Mass:       1.7757                 1.0977                 3.5091
 IR Intens:      307.116                101.747                701.056
 Frequency:      1180.13                1286.58                1315.95
 Force Cnst:      1.2606                 2.5387                 3.9000
 Red. Mass:       1.5362                 2.6030                 3.8224
 IR Intens:      329.020                 67.193                169.072
 Frequency:      1367.00                1403.31                1420.41
 Force Cnst:      1.3605                 1.3861                 1.8368
 Red. Mass:       1.2357                 1.1947                 1.5452
 IR Intens:      342.600                  0.281                 18.009
 Frequency:      1579.53                1708.78                1753.55
 Force Cnst:      1.8169                 7.4236                 2.2400
 Red. Mass:       1.2360                 4.3151                 1.2364
 IR Intens:      217.216                888.674                299.522
 Frequency:      2176.76                3439.61                3467.12
 Force Cnst:      2.9800                 7.4250                 7.5495
 Red. Mass:       1.0675                 1.0652                 1.0659
 IR Intens:      265.754                160.147                252.044

 STANDARD THERMODYNAMIC QUANTITIES AT   298.15 K  AND     1.00 ATM

   This Molecule has  3 Imaginary Frequencies
   Zero point vibrational energy:       45.580 kcal/mol

   Atom    1 Element O  Has Mass   15.99491
   Atom    2 Element C  Has Mass   12.00000
   Atom    3 Element O  Has Mass   15.99491
   Atom    4 Element C  Has Mass   12.00000
   Atom    5 Element O  Has Mass   15.99491
   Atom    6 Element O  Has Mass   15.99491
   Atom    7 Element H  Has Mass    1.00783
   Atom    8 Element H  Has Mass    1.00783
   Atom    9 Element H  Has Mass    1.00783
   Atom   10 Element H  Has Mass    1.00783
   Atom   11 Element O  Has Mass   15.99491
   Atom   12 Element H  Has Mass    1.00783
   Molecular Mass:   109.013700 amu
   Principal axes and moments of inertia in amu*Bohr^2:
                             1           2           3
    Eigenvalues --      590.01716   754.32165  1022.37864
          X               0.97140    -0.23059     0.05671
          Y               0.20634     0.70146    -0.68219
          Z               0.11752     0.67438     0.72897
   Rotational Symmetry Number is   1
   The Molecule is an Asymmetric Top
   Translational Enthalpy:        0.889 kcal/mol
   Rotational Enthalpy:           0.889 kcal/mol
   Vibrational Enthalpy:         47.502 kcal/mol
   gas constant (RT):             0.592 kcal/mol
   Translational Entropy:        39.975  cal/mol.K
   Rotational Entropy:           27.611  cal/mol.K
   Vibrational Entropy:          10.158  cal/mol.K

   Total Enthalpy:               49.872 kcal/mol
   Total Entropy:                77.744  cal/mol.K
 Total job time:  5186.17s(wall), 70205.01s(cpu)
        *  Thank you very much for using Q-Chem.  Have a nice day.  *
 Q-Chem 5.4, Q-Chem, Inc., Pleasanton, CA (2021)
 Q-Chem 5.4.1 for Intel X86 EM64T Linux

User input:
--------------------------------------------------------------

$rem
JOBTYPE = ts
SCF_GUESS = read
GEOM_OPT_HESSIAN = read
MAX_SCF_CYCLES = 350
GEOM_OPT_DMAX = 60
GEOM_OPT_MAX_CYCLES = 250
METHOD = wB97M-v
BASIS = 6-311++G(2df,2p)
SCF_CONVERGENCE = 7
THRESH = 12
SCF_ALGORITHM = DIIS_GDM
solvent_method = SMD
$end

$molecule
read
$end
--------------------------------------------------------------

   20    -455.3214299053      8.20e-08  Convergence criterion met
 Total energy in the final basis set =     -455.3139220452
   20    -455.3214389905      9.78e-08  Convergence criterion met
 Total energy in the final basis set =     -455.3139302977
   20    -455.3214453953      9.00e-08  Convergence criterion met
 Total energy in the final basis set =     -455.3139366052
   19    -455.3214523873      7.09e-08  Convergence criterion met
 Total energy in the final basis set =     -455.3139408634
   20    -455.3214560762      8.16e-08  Convergence criterion met
 Total energy in the final basis set =     -455.3139437615
   20    -455.3214611489      7.17e-08  Convergence criterion met
 Total energy in the final basis set =     -455.3139448780

             Standard Nuclear Orientation (Angstroms)
    I     Atom           X                Y                Z
 ----------------------------------------------------------------
    1      O      -0.4628443119     1.4062765168    -0.3338263962
    2      C       0.0001780212     0.4576397441     0.5699888494
    3      O      -0.9991184032    -0.4100108625     0.9945623619
    4      C       1.1585387697    -0.3123762542    -0.0500006829
    5      O       2.0694287861     0.4823349227    -0.5845675524
    6      O       1.2217330546    -1.5180777080    -0.0011624366
    7      H      -1.0496509914     2.0161099922     0.1307241003
    8      H      -0.6649513630    -1.3165348992     0.9062656099
    9      H       2.7994759286    -0.0533732966    -0.9357000371
   10      H       0.4330768658     0.9910550084     1.4857371922
   11      O       1.2872704652     1.6529693057     2.5904387587
   12      H       2.0679795783     1.7852775305     2.0246481329
 ----------------------------------------------------------------

   20    -455.3214614528      9.10e-08  Convergence criterion met
 Total energy in the final basis set =     -455.3139441239
 Final energy is   -455.313944123940
 **  OPTIMIZATION CONVERGED  **

                    Orbital Energies (a.u.)
 --------------------------------------------------------------

 Alpha MOs
 -- Occupied --
-19.3981 -19.3857 -19.3651 -19.3610 -19.3520 -10.5040 -10.4795  -1.2696
 -1.2203  -1.1813  -1.1533  -1.1341  -0.8654  -0.7494  -0.6878  -0.6714
 -0.6457  -0.6156  -0.5867  -0.5675  -0.5470  -0.5309  -0.5084  -0.4890
 -0.4558  -0.4527  -0.4397  -0.4233  -0.3854

 Beta MOs
 -- Occupied --
-19.3981 -19.3647 -19.3643 -19.3599 -19.3517 -10.5040 -10.4757  -1.2691
 -1.2178  -1.1807  -1.1512  -1.0791  -0.8606  -0.7454  -0.6833  -0.6654
 -0.6397  -0.6099  -0.5738  -0.5525  -0.5459  -0.5235  -0.4875  -0.4531
 -0.4376  -0.4304  -0.4265  -0.4046

          Ground-State Mulliken Net Atomic Charges

     Atom                 Charge (a.u.)    Spin (a.u.)
  --------------------------------------------------------
      1 O                    -0.360199       0.026857
      2 C                    -0.224904       0.167620
      3 O                    -0.387674       0.033533
      4 C                     0.410702      -0.003305
      5 O                    -0.281742       0.000568
      6 O                    -0.461977       0.009198
      7 H                     0.354101       0.000282
      8 H                     0.315782       0.001922
      9 H                     0.365299       0.000052
     10 H                     0.384182      -0.027485
     11 O                    -0.444366       0.802762
     12 H                     0.330797      -0.012004
  --------------------------------------------------------
  Sum of atomic charges =    -0.000000

                    Cartesian Multipole Moments
 -----------------------------------------------------------------
    Charge (ESU x 10^10)
                -0.0000
    Dipole Moment (Debye)
         X       2.9198      Y       1.2300      Z      -1.4737
       Tot       3.4943
    Quadrupole Moments (Debye-Ang)
        XX     -29.8897     XY       0.9498     YY     -41.9547
        XZ      -2.1380     YZ      -0.1508     ZZ     -49.2449

 Total job time:  7262.80s(wall), 105251.52s(cpu)
        *  Thank you very much for using Q-Chem.  Have a nice day.  *
